Program Version,EnergyPlus, Version 8.9.0-eba93e8e1b, YMD=2018.08.01 15:00
1,5,Environment Title[],Latitude[deg],Longitude[deg],Time Zone[],Elevation[m]
2,8,Day of Simulation[],Month[],Day of Month[],DST Indicator[1=yes 0=no],Hour[],StartMinute[],EndMinute[],DayType
3,5,Cumulative Day of Simulation[],Month[],Day of Month[],DST Indicator[1=yes 0=no],DayType  ! When Daily Report Variables Requested
4,2,Cumulative Days of Simulation[],Month[]  ! When Monthly Report Variables Requested
5,1,Cumulative Days of Simulation[] ! When Run Period Report Variables Requested
6,1,Calendar Year of Simulation[] ! When Annual Report Variables Requested
7,9,Environment,Site Outdoor Air Drybulb Temperature [C] !Monthly [Value,Min,Day,Hour,Minute,Max,Day,Hour,Minute]
891,1,THERMAL CO-WORKING,Zone Air Temperature [C] !Hourly
892,7,THERMAL CO-WORKING,Zone Air Relative Humidity [%] !Daily [Value,Min,Hour,Minute,Max,Hour,Minute]
931,1,THERMAL CORRIDOR,Zone Air Temperature [C] !Hourly
932,7,THERMAL CORRIDOR,Zone Air Relative Humidity [%] !Daily [Value,Min,Hour,Minute,Max,Hour,Minute]
971,1,THERMAL ELEVATOR,Zone Air Temperature [C] !Hourly
972,7,THERMAL ELEVATOR,Zone Air Relative Humidity [%] !Daily [Value,Min,Hour,Minute,Max,Hour,Minute]
1011,1,THERMAL ENTRANCE,Zone Air Temperature [C] !Hourly
1012,7,THERMAL ENTRANCE,Zone Air Relative Humidity [%] !Daily [Value,Min,Hour,Minute,Max,Hour,Minute]
1051,1,THERMAL LAB NORTH,Zone Air Temperature [C] !Hourly
1052,7,THERMAL LAB NORTH,Zone Air Relative Humidity [%] !Daily [Value,Min,Hour,Minute,Max,Hour,Minute]
1091,1,THERMAL LAB SOUTH,Zone Air Temperature [C] !Hourly
1092,7,THERMAL LAB SOUTH,Zone Air Relative Humidity [%] !Daily [Value,Min,Hour,Minute,Max,Hour,Minute]
1131,1,THERMAL MEETING ROOM NORTH,Zone Air Temperature [C] !Hourly
1132,7,THERMAL MEETING ROOM NORTH,Zone Air Relative Humidity [%] !Daily [Value,Min,Hour,Minute,Max,Hour,Minute]
1171,1,THERMAL MEETING ROOM SOUTH,Zone Air Temperature [C] !Hourly
1172,7,THERMAL MEETING ROOM SOUTH,Zone Air Relative Humidity [%] !Daily [Value,Min,Hour,Minute,Max,Hour,Minute]
1211,1,THERMAL NERD ROOM 1,Zone Air Temperature [C] !Hourly
1212,7,THERMAL NERD ROOM 1,Zone Air Relative Humidity [%] !Daily [Value,Min,Hour,Minute,Max,Hour,Minute]
1251,1,THERMAL NERD ROOM 2,Zone Air Temperature [C] !Hourly
1252,7,THERMAL NERD ROOM 2,Zone Air Relative Humidity [%] !Daily [Value,Min,Hour,Minute,Max,Hour,Minute]
1291,1,THERMAL RESTROOM M,Zone Air Temperature [C] !Hourly
1292,7,THERMAL RESTROOM M,Zone Air Relative Humidity [%] !Daily [Value,Min,Hour,Minute,Max,Hour,Minute]
1331,1,THERMAL RESTROOM W,Zone Air Temperature [C] !Hourly
1332,7,THERMAL RESTROOM W,Zone Air Relative Humidity [%] !Daily [Value,Min,Hour,Minute,Max,Hour,Minute]
1371,1,THERMAL SPACE 01,Zone Air Temperature [C] !Hourly
1372,7,THERMAL SPACE 01,Zone Air Relative Humidity [%] !Daily [Value,Min,Hour,Minute,Max,Hour,Minute]
1411,1,THERMAL STAIRWAY,Zone Air Temperature [C] !Hourly
1412,7,THERMAL STAIRWAY,Zone Air Relative Humidity [%] !Daily [Value,Min,Hour,Minute,Max,Hour,Minute]
1524,1,ZONE HVAC BASEBOARD RAD CONV WATER CO-WORKING,Baseboard Total Heating Rate [W] !TimeStep
1587,1,ZONE HVAC BASEBOARD RAD CONV WATER CORRIDOR,Baseboard Total Heating Rate [W] !TimeStep
1590,1,ZONE HVAC BASEBOARD RAD CONV WATER ELEVATOR,Baseboard Total Heating Rate [W] !TimeStep
1593,1,ZONE HVAC BASEBOARD RAD CONV WATER ENTRANCE,Baseboard Total Heating Rate [W] !TimeStep
1596,1,ZONE HVAC BASEBOARD RAD CONV WATER LAB NORTH,Baseboard Total Heating Rate [W] !TimeStep
1599,1,ZONE HVAC BASEBOARD RAD CONV WATER LAB SOUTH,Baseboard Total Heating Rate [W] !TimeStep
1602,1,ZONE HVAC BASEBOARD RAD CONV WATER MR NORTH,Baseboard Total Heating Rate [W] !TimeStep
1605,1,ZONE HVAC BASEBOARD RAD CONV WATER MR SOUTH,Baseboard Total Heating Rate [W] !TimeStep
1608,1,ZONE HVAC BASEBOARD RAD CONV WATER NR 1,Baseboard Total Heating Rate [W] !TimeStep
1611,1,ZONE HVAC BASEBOARD RAD CONV WATER NR 2,Baseboard Total Heating Rate [W] !TimeStep
1614,1,ZONE HVAC BASEBOARD RAD CONV WATER RESTROOM M,Baseboard Total Heating Rate [W] !TimeStep
1617,1,ZONE HVAC BASEBOARD RAD CONV WATER RESTROOM W,Baseboard Total Heating Rate [W] !TimeStep
1620,1,ZONE HVAC BASEBOARD RAD CONV WATER SPACE 01,Baseboard Total Heating Rate [W] !TimeStep
1623,1,ZONE HVAC BASEBOARD RAD CONV WATER STAIRWAY,Baseboard Total Heating Rate [W] !TimeStep
9,1,Electricity:Facility [J] !TimeStep
1652,1,Gas:Facility [J] !TimeStep
End of Data Dictionary
1,BERLIN ANN CLG .4% CONDNS DB=>MWB,  52.47,  13.40,   1.00,  49.00
2,1, 7,21, 0, 1, 0.00,10.00,SummerDesignDay
1524,0.0
1587,0.0
1590,0.0
1593,0.0
1596,0.0
1599,0.0
1602,0.0
1605,0.0
1608,0.0
1611,0.0
1614,0.0
1617,0.0
1620,0.0
1623,0.0
9,4074340.725594694
1652,0.0
2,1, 7,21, 0, 1,10.00,20.00,SummerDesignDay
1524,0.0
1587,0.0
1590,0.0
1593,0.0
1596,0.0
1599,0.0
1602,0.0
1605,0.0
1608,0.0
1611,0.0
1614,0.0
1617,0.0
1620,0.0
1623,0.0
9,4074340.725594694
1652,0.0
2,1, 7,21, 0, 1,20.00,30.00,SummerDesignDay
1524,0.0
1587,0.0
1590,0.0
1593,0.0
1596,0.0
1599,0.0
1602,0.0
1605,0.0
1608,0.0
1611,0.0
1614,0.0
1617,0.0
1620,0.0
1623,0.0
9,4074340.725594694
1652,0.0
2,1, 7,21, 0, 1,30.00,40.00,SummerDesignDay
1524,0.0
1587,0.0
1590,0.0
1593,0.0
1596,0.0
1599,0.0
1602,0.0
1605,0.0
1608,0.0
1611,0.0
1614,0.0
1617,0.0
1620,0.0
1623,0.0
9,4074340.725594694
1652,0.0
2,1, 7,21, 0, 1,40.00,50.00,SummerDesignDay
1524,0.0
1587,0.0
1590,0.0
1593,0.0
1596,0.0
1599,0.0
1602,0.0
1605,0.0
1608,0.0
1611,0.0
1614,0.0
1617,0.0
1620,0.0
1623,0.0
9,4074340.725594694
1652,0.0
2,1, 7,21, 0, 1,50.00,60.00,SummerDesignDay
1524,0.0
1587,0.0
1590,0.0
1593,0.0
1596,0.0
1599,0.0
1602,0.0
1605,0.0
1608,0.0
1611,0.0
1614,0.0
1617,0.0
1620,0.0
1623,0.0
9,4074340.725594694
1652,0.0
2,1, 7,21, 0, 1, 0.00,60.00,SummerDesignDay
891,25.192022781625736
931,22.97558159020375
971,22.6072242131759
1011,25.141144009971609
1051,27.013365963328029
1091,24.928598934643003
1131,23.875767529809655
1171,23.912181333013654
1211,23.87673660004189
1251,23.86541798016788
1291,22.720101624418989
1331,22.85510435967642
1371,23.874317587109294
1411,22.969395543268264
2,1, 7,21, 0, 2, 0.00,10.00,SummerDesignDay
1524,0.0
1587,0.0
1590,0.0
1593,0.0
1596,0.0
1599,0.0
1602,0.0
1605,0.0
1608,0.0
1611,0.0
1614,0.0
1617,0.0
1620,0.0
1623,0.0
9,4074340.725594694
1652,0.0
2,1, 7,21, 0, 2,10.00,20.00,SummerDesignDay
1524,0.0
1587,0.0
1590,0.0
1593,0.0
1596,0.0
1599,0.0
1602,0.0
1605,0.0
1608,0.0
1611,0.0
1614,0.0
1617,0.0
1620,0.0
1623,0.0
9,4074340.725594694
1652,0.0
2,1, 7,21, 0, 2,20.00,30.00,SummerDesignDay
1524,0.0
1587,0.0
1590,0.0
1593,0.0
1596,0.0
1599,0.0
1602,0.0
1605,0.0
1608,0.0
1611,0.0
1614,0.0
1617,0.0
1620,0.0
1623,0.0
9,4074340.725594694
1652,0.0
2,1, 7,21, 0, 2,30.00,40.00,SummerDesignDay
1524,0.0
1587,0.0
1590,0.0
1593,0.0
1596,0.0
1599,0.0
1602,0.0
1605,0.0
1608,0.0
1611,0.0
1614,0.0
1617,0.0
1620,0.0
1623,0.0
9,4074340.725594694
1652,0.0
2,1, 7,21, 0, 2,40.00,50.00,SummerDesignDay
1524,0.0
1587,0.0
1590,0.0
1593,0.0
1596,0.0
1599,0.0
1602,0.0
1605,0.0
1608,0.0
1611,0.0
1614,0.0
1617,0.0
1620,0.0
1623,0.0
9,4074340.725594694
1652,0.0
2,1, 7,21, 0, 2,50.00,60.00,SummerDesignDay
1524,0.0
1587,0.0
1590,0.0
1593,0.0
1596,0.0
1599,0.0
1602,0.0
1605,0.0
1608,0.0
1611,0.0
1614,0.0
1617,0.0
1620,0.0
1623,0.0
9,4074340.725594694
1652,0.0
2,1, 7,21, 0, 2, 0.00,60.00,SummerDesignDay
891,24.75896530253677
931,22.53671186379847
971,22.1650708574585
1011,24.749304422013564
1051,26.663967532827603
1091,24.50253426838867
1131,23.44332363684336
1171,23.468802226464424
1211,23.433687188039185
1251,23.42252795541208
1291,22.27575644367836
1331,22.415135881673736
1371,23.449560259886398
1411,22.5558770688628
2,1, 7,21, 0, 3, 0.00,10.00,SummerDesignDay
1524,0.0
1587,0.0
1590,0.0
1593,0.0
1596,0.0
1599,0.0
1602,0.0
1605,0.0
1608,0.0
1611,0.0
1614,0.0
1617,0.0
1620,0.0
1623,0.0
9,4074340.725594694
1652,0.0
2,1, 7,21, 0, 3,10.00,20.00,SummerDesignDay
1524,0.0
1587,0.0
1590,0.0
1593,0.0
1596,0.0
1599,0.0
1602,0.0
1605,0.0
1608,0.0
1611,0.0
1614,0.0
1617,0.0
1620,0.0
1623,0.0
9,4074340.725594694
1652,0.0
2,1, 7,21, 0, 3,20.00,30.00,SummerDesignDay
1524,0.0
1587,0.0
1590,0.0
1593,0.0
1596,0.0
1599,0.0
1602,0.0
1605,0.0
1608,0.0
1611,0.0
1614,0.0
1617,0.0
1620,0.0
1623,0.0
9,4074340.725594694
1652,0.0
2,1, 7,21, 0, 3,30.00,40.00,SummerDesignDay
1524,0.0
1587,0.0
1590,0.0
1593,0.0
1596,0.0
1599,0.0
1602,0.0
1605,0.0
1608,0.0
1611,0.0
1614,0.0
1617,0.0
1620,0.0
1623,0.0
9,4074340.725594694
1652,0.0
2,1, 7,21, 0, 3,40.00,50.00,SummerDesignDay
1524,0.0
1587,0.0
1590,0.0
1593,0.0
1596,0.0
1599,0.0
1602,0.0
1605,0.0
1608,0.0
1611,0.0
1614,0.0
1617,0.0
1620,0.0
1623,0.0
9,4074340.725594694
1652,0.0
2,1, 7,21, 0, 3,50.00,60.00,SummerDesignDay
1524,0.0
1587,0.0
1590,0.0
1593,0.0
1596,0.0
1599,0.0
1602,0.0
1605,0.0
1608,0.0
1611,0.0
1614,0.0
1617,0.0
1620,0.0
1623,0.0
9,4074340.725594694
1652,0.0
2,1, 7,21, 0, 3, 0.00,60.00,SummerDesignDay
891,24.418118411528736
931,22.187762215928445
971,21.82722188093538
1011,24.429880228555168
1051,26.35421715651898
1091,24.166636296533907
1131,23.114908405722578
1171,23.133177107695177
1211,23.09579259096859
1251,23.08603313915678
1291,21.935933672054817
1331,22.07693896253194
1371,23.121957573582237
1411,22.225619725249698
2,1, 7,21, 0, 4, 0.00,10.00,SummerDesignDay
1524,0.0
1587,0.0
1590,0.0
1593,0.0
1596,0.0
1599,0.0
1602,0.0
1605,0.0
1608,0.0
1611,0.0
1614,0.0
1617,0.0
1620,0.0
1623,0.0
9,4074340.725594694
1652,0.0
2,1, 7,21, 0, 4,10.00,20.00,SummerDesignDay
1524,0.0
1587,0.0
1590,0.0
1593,0.0
1596,0.0
1599,0.0
1602,0.0
1605,0.0
1608,0.0
1611,0.0
1614,0.0
1617,0.0
1620,0.0
1623,0.0
9,4074340.725594694
1652,0.0
2,1, 7,21, 0, 4,20.00,30.00,SummerDesignDay
1524,0.0
1587,0.0
1590,0.0
1593,0.0
1596,0.0
1599,0.0
1602,0.0
1605,0.0
1608,0.0
1611,0.0
1614,0.0
1617,0.0
1620,0.0
1623,0.0
9,4074340.725594694
1652,0.0
2,1, 7,21, 0, 4,30.00,40.00,SummerDesignDay
1524,0.0
1587,0.0
1590,0.0
1593,0.0
1596,0.0
1599,0.0
1602,0.0
1605,0.0
1608,0.0
1611,0.0
1614,0.0
1617,0.0
1620,0.0
1623,0.0
9,4074340.725594694
1652,0.0
2,1, 7,21, 0, 4,40.00,50.00,SummerDesignDay
1524,0.0
1587,0.0
1590,0.0
1593,0.0
1596,0.0
1599,0.0
1602,0.0
1605,0.0
1608,0.0
1611,0.0
1614,0.0
1617,0.0
1620,0.0
1623,0.0
9,4074340.725594694
1652,0.0
2,1, 7,21, 0, 4,50.00,60.00,SummerDesignDay
1524,0.0
1587,0.0
1590,0.0
1593,0.0
1596,0.0
1599,0.0
1602,0.0
1605,0.0
1608,0.0
1611,0.0
1614,0.0
1617,0.0
1620,0.0
1623,0.0
9,4074340.725594694
1652,0.0
2,1, 7,21, 0, 4, 0.00,60.00,SummerDesignDay
891,24.124658897527838
931,21.88079097223957
971,21.531215736125096
1011,24.152076898618618
1051,26.073504583447563
1091,23.874441828809009
1131,22.83093080568139
1171,22.841405771647346
1211,22.80017299591248
1251,22.790176128548088
1291,21.63814047889097
1331,21.780425965049039
1371,22.835735741759057
1411,21.93449825798436
2,1, 7,21, 0, 5, 0.00,10.00,SummerDesignDay
1524,0.0
1587,0.0
1590,0.0
1593,0.0
1596,0.0
1599,0.0
1602,0.0
1605,0.0
1608,0.0
1611,0.0
1614,0.0
1617,0.0
1620,0.0
1623,0.0
9,4074340.725594694
1652,0.0
2,1, 7,21, 0, 5,10.00,20.00,SummerDesignDay
1524,0.0
1587,0.0
1590,0.0
1593,0.0
1596,0.0
1599,0.0
1602,0.0
1605,0.0
1608,0.0
1611,0.0
1614,0.0
1617,0.0
1620,0.0
1623,0.0
9,4074340.725594694
1652,0.0
2,1, 7,21, 0, 5,20.00,30.00,SummerDesignDay
1524,0.0
1587,0.0
1590,0.0
1593,0.0
1596,0.0
1599,0.0
1602,0.0
1605,0.0
1608,0.0
1611,0.0
1614,0.0
1617,0.0
1620,0.0
1623,0.0
9,4074340.725594694
1652,0.0
2,1, 7,21, 0, 5,30.00,40.00,SummerDesignDay
1524,0.0
1587,0.0
1590,0.0
1593,0.0
1596,0.0
1599,0.0
1602,0.0
1605,0.0
1608,0.0
1611,0.0
1614,0.0
1617,0.0
1620,0.0
1623,0.0
9,4074340.725594694
1652,0.0
2,1, 7,21, 0, 5,40.00,50.00,SummerDesignDay
1524,0.0
1587,0.0
1590,0.0
1593,0.0
1596,0.0
1599,0.0
1602,0.0
1605,0.0
1608,0.0
1611,0.0
1614,0.0
1617,0.0
1620,0.0
1623,0.0
9,4074340.725594694
1652,0.0
2,1, 7,21, 0, 5,50.00,60.00,SummerDesignDay
1524,0.0
1587,0.0
1590,0.0
1593,0.0
1596,0.0
1599,0.0
1602,0.0
1605,0.0
1608,0.0
1611,0.0
1614,0.0
1617,0.0
1620,0.0
1623,0.0
9,4074340.725594694
1652,0.0
2,1, 7,21, 0, 5, 0.00,60.00,SummerDesignDay
891,23.91809315714923
931,21.61789973380763
971,21.282623003768206
1011,23.91063982074464
1051,25.851721995060925
1091,23.627029432802673
1131,22.603446922158189
1171,22.598012111495775
1211,22.549738657065018
1251,22.538587048178117
1291,21.387601926985768
1331,21.529576945759307
1371,22.60970133145477
1411,21.68248907814119
2,1, 7,21, 0, 6, 0.00,10.00,SummerDesignDay
1524,0.0
1587,0.0
1590,0.0
1593,0.0
1596,0.0
1599,0.0
1602,0.0
1605,0.0
1608,0.0
1611,0.0
1614,0.0
1617,0.0
1620,0.0
1623,0.0
9,4074340.725594694
1652,0.0
2,1, 7,21, 0, 6,10.00,20.00,SummerDesignDay
1524,0.0
1587,0.0
1590,0.0
1593,0.0
1596,0.0
1599,0.0
1602,0.0
1605,0.0
1608,0.0
1611,0.0
1614,0.0
1617,0.0
1620,0.0
1623,0.0
9,4074340.725594694
1652,0.0
2,1, 7,21, 0, 6,20.00,30.00,SummerDesignDay
1524,0.0
1587,0.0
1590,0.0
1593,0.0
1596,0.0
1599,0.0
1602,0.0
1605,0.0
1608,0.0
1611,0.0
1614,0.0
1617,0.0
1620,0.0
1623,0.0
9,4074340.725594694
1652,0.0
2,1, 7,21, 0, 6,30.00,40.00,SummerDesignDay
1524,0.0
1587,0.0
1590,0.0
1593,0.0
1596,0.0
1599,0.0
1602,0.0
1605,0.0
1608,0.0
1611,0.0
1614,0.0
1617,0.0
1620,0.0
1623,0.0
9,4074340.725594694
1652,0.0
2,1, 7,21, 0, 6,40.00,50.00,SummerDesignDay
1524,0.0
1587,0.0
1590,0.0
1593,0.0
1596,0.0
1599,0.0
1602,0.0
1605,0.0
1608,0.0
1611,0.0
1614,0.0
1617,0.0
1620,0.0
1623,0.0
9,4074340.725594694
1652,0.0
2,1, 7,21, 0, 6,50.00,60.00,SummerDesignDay
1524,0.0
1587,0.0
1590,0.0
1593,0.0
1596,0.0
1599,0.0
1602,0.0
1605,0.0
1608,0.0
1611,0.0
1614,0.0
1617,0.0
1620,0.0
1623,0.0
9,4074340.725594694
1652,0.0
2,1, 7,21, 0, 6, 0.00,60.00,SummerDesignDay
891,24.08975850331181
931,21.5156911214674
971,21.225219559349779
1011,23.762880236216004
1051,25.822489862451694
1091,23.530976480339306
1131,22.594149326808734
1171,22.538923699006504
1211,22.471265820773529
1251,22.459408466388458
1291,21.32837945040979
1331,21.46123936849884
1371,22.667602538499876
1411,21.582092920501706
2,1, 7,21, 0, 7, 0.00,10.00,SummerDesignDay
1524,0.0
1587,0.0
1590,0.0
1593,0.0
1596,0.0
1599,0.0
1602,0.0
1605,0.0
1608,0.0
1611,0.0
1614,0.0
1617,0.0
1620,0.0
1623,0.0
9,4074340.725594694
1652,0.0
2,1, 7,21, 0, 7,10.00,20.00,SummerDesignDay
1524,0.0
1587,0.0
1590,0.0
1593,0.0
1596,0.0
1599,0.0
1602,0.0
1605,0.0
1608,0.0
1611,0.0
1614,0.0
1617,0.0
1620,0.0
1623,0.0
9,4074340.725594694
1652,0.0
2,1, 7,21, 0, 7,20.00,30.00,SummerDesignDay
1524,0.0
1587,0.0
1590,0.0
1593,0.0
1596,0.0
1599,0.0
1602,0.0
1605,0.0
1608,0.0
1611,0.0
1614,0.0
1617,0.0
1620,0.0
1623,0.0
9,4074340.725594694
1652,0.0
2,1, 7,21, 0, 7,30.00,40.00,SummerDesignDay
1524,0.0
1587,0.0
1590,0.0
1593,0.0
1596,0.0
1599,0.0
1602,0.0
1605,0.0
1608,0.0
1611,0.0
1614,0.0
1617,0.0
1620,0.0
1623,0.0
9,4074340.725594694
1652,0.0
2,1, 7,21, 0, 7,40.00,50.00,SummerDesignDay
1524,0.0
1587,0.0
1590,0.0
1593,0.0
1596,0.0
1599,0.0
1602,0.0
1605,0.0
1608,0.0
1611,0.0
1614,0.0
1617,0.0
1620,0.0
1623,0.0
9,4074340.725594694
1652,0.0
2,1, 7,21, 0, 7,50.00,60.00,SummerDesignDay
1524,0.0
1587,0.0
1590,0.0
1593,0.0
1596,0.0
1599,0.0
1602,0.0
1605,0.0
1608,0.0
1611,0.0
1614,0.0
1617,0.0
1620,0.0
1623,0.0
9,4074340.725594694
1652,0.0
2,1, 7,21, 0, 7, 0.00,60.00,SummerDesignDay
891,25.180290232845548
931,21.764989693692426
971,21.543261437979326
1011,24.530782289918123
1051,26.318145234758977
1091,24.010967015307533
1131,23.066109604370614
1171,22.984041132946517
1211,22.867190795390717
1251,22.851276579414589
1291,21.828139325493696
1331,21.96919591043022
1371,23.00841380487888
1411,21.778546177942336
2,1, 7,21, 0, 8, 0.00,10.00,SummerDesignDay
1524,0.0
1587,0.0
1590,0.0
1593,0.0
1596,0.0
1599,0.0
1602,0.0
1605,0.0
1608,0.0
1611,0.0
1614,0.0
1617,0.0
1620,0.0
1623,0.0
9,4074340.725594694
1652,0.0
2,1, 7,21, 0, 8,10.00,20.00,SummerDesignDay
1524,0.0
1587,0.0
1590,0.0
1593,0.0
1596,0.0
1599,0.0
1602,0.0
1605,0.0
1608,0.0
1611,0.0
1614,0.0
1617,0.0
1620,0.0
1623,0.0
9,4074340.725594694
1652,0.0
2,1, 7,21, 0, 8,20.00,30.00,SummerDesignDay
1524,0.0
1587,0.0
1590,0.0
1593,0.0
1596,0.0
1599,0.0
1602,0.0
1605,0.0
1608,0.0
1611,0.0
1614,0.0
1617,0.0
1620,0.0
1623,0.0
9,4074340.725594694
1652,0.0
2,1, 7,21, 0, 8,30.00,40.00,SummerDesignDay
1524,0.0
1587,0.0
1590,0.0
1593,0.0
1596,0.0
1599,0.0
1602,0.0
1605,0.0
1608,0.0
1611,0.0
1614,0.0
1617,0.0
1620,0.0
1623,0.0
9,4074340.725594694
1652,0.0
2,1, 7,21, 0, 8,40.00,50.00,SummerDesignDay
1524,0.0
1587,0.0
1590,0.0
1593,0.0
1596,0.0
1599,0.0
1602,0.0
1605,0.0
1608,0.0
1611,0.0
1614,0.0
1617,0.0
1620,0.0
1623,0.0
9,4074340.725594694
1652,0.0
2,1, 7,21, 0, 8,50.00,60.00,SummerDesignDay
1524,0.0
1587,0.0
1590,0.0
1593,0.0
1596,0.0
1599,0.0
1602,0.0
1605,0.0
1608,0.0
1611,0.0
1614,0.0
1617,0.0
1620,0.0
1623,0.0
9,4074340.725594694
1652,0.0
2,1, 7,21, 0, 8, 0.00,60.00,SummerDesignDay
891,26.02554616490694
931,22.393820891452778
971,22.37231050099011
1011,24.991025035654915
1051,26.50672689636636
1091,24.56737027631921
1131,23.738081713088169
1171,23.682542507555245
1211,23.50212987629715
1251,23.48078982068543
1291,22.60927689563563
1331,22.752035325241765
1371,23.477088079707813
1411,22.302548805792044
2,1, 7,21, 0, 9, 0.00,10.00,SummerDesignDay
1524,0.0
1587,0.0
1590,0.0
1593,0.0
1596,0.0
1599,0.0
1602,0.0
1605,0.0
1608,0.0
1611,0.0
1614,0.0
1617,0.0
1620,0.0
1623,0.0
9,4074340.725594694
1652,0.0
2,1, 7,21, 0, 9,10.00,20.00,SummerDesignDay
1524,0.0
1587,0.0
1590,0.0
1593,0.0
1596,0.0
1599,0.0
1602,0.0
1605,0.0
1608,0.0
1611,0.0
1614,0.0
1617,0.0
1620,0.0
1623,0.0
9,4074340.725594694
1652,0.0
2,1, 7,21, 0, 9,20.00,30.00,SummerDesignDay
1524,0.0
1587,0.0
1590,0.0
1593,0.0
1596,0.0
1599,0.0
1602,0.0
1605,0.0
1608,0.0
1611,0.0
1614,0.0
1617,0.0
1620,0.0
1623,0.0
9,4074340.725594694
1652,0.0
2,1, 7,21, 0, 9,30.00,40.00,SummerDesignDay
1524,0.0
1587,0.0
1590,0.0
1593,0.0
1596,0.0
1599,0.0
1602,0.0
1605,0.0
1608,0.0
1611,0.0
1614,0.0
1617,0.0
1620,0.0
1623,0.0
9,4074340.725594694
1652,0.0
2,1, 7,21, 0, 9,40.00,50.00,SummerDesignDay
1524,0.0
1587,0.0
1590,0.0
1593,0.0
1596,0.0
1599,0.0
1602,0.0
1605,0.0
1608,0.0
1611,0.0
1614,0.0
1617,0.0
1620,0.0
1623,0.0
9,4074340.725594694
1652,0.0
2,1, 7,21, 0, 9,50.00,60.00,SummerDesignDay
1524,0.0
1587,0.0
1590,0.0
1593,0.0
1596,0.0
1599,0.0
1602,0.0
1605,0.0
1608,0.0
1611,0.0
1614,0.0
1617,0.0
1620,0.0
1623,0.0
9,4074340.725594694
1652,0.0
2,1, 7,21, 0, 9, 0.00,60.00,SummerDesignDay
891,26.803521832813613
931,23.307888785617235
971,23.540555673198868
1011,25.45623520085502
1051,26.69995151600308
1091,25.426903103693858
1131,24.715200997104387
1171,24.792617378008033
1211,24.489826995992627
1251,24.460375313909564
1291,23.72279067689395
1331,23.832601821481746
1371,24.30384649212671
1411,23.095725763808777
2,1, 7,21, 0,10, 0.00,10.00,SummerDesignDay
1524,0.0
1587,0.0
1590,0.0
1593,0.0
1596,0.0
1599,0.0
1602,0.0
1605,0.0
1608,0.0
1611,0.0
1614,0.0
1617,0.0
1620,0.0
1623,0.0
9,4074340.725594694
1652,0.0
2,1, 7,21, 0,10,10.00,20.00,SummerDesignDay
1524,0.0
1587,0.0
1590,0.0
1593,0.0
1596,0.0
1599,0.0
1602,0.0
1605,0.0
1608,0.0
1611,0.0
1614,0.0
1617,0.0
1620,0.0
1623,0.0
9,4074340.725594694
1652,0.0
2,1, 7,21, 0,10,20.00,30.00,SummerDesignDay
1524,0.0
1587,0.0
1590,0.0
1593,0.0
1596,0.0
1599,0.0
1602,0.0
1605,0.0
1608,0.0
1611,0.0
1614,0.0
1617,0.0
1620,0.0
1623,0.0
9,4074340.725594694
1652,0.0
2,1, 7,21, 0,10,30.00,40.00,SummerDesignDay
1524,0.0
1587,0.0
1590,0.0
1593,0.0
1596,0.0
1599,0.0
1602,0.0
1605,0.0
1608,0.0
1611,0.0
1614,0.0
1617,0.0
1620,0.0
1623,0.0
9,4074340.725594694
1652,0.0
2,1, 7,21, 0,10,40.00,50.00,SummerDesignDay
1524,0.0
1587,0.0
1590,0.0
1593,0.0
1596,0.0
1599,0.0
1602,0.0
1605,0.0
1608,0.0
1611,0.0
1614,0.0
1617,0.0
1620,0.0
1623,0.0
9,4074340.725594694
1652,0.0
2,1, 7,21, 0,10,50.00,60.00,SummerDesignDay
1524,0.0
1587,0.0
1590,0.0
1593,0.0
1596,0.0
1599,0.0
1602,0.0
1605,0.0
1608,0.0
1611,0.0
1614,0.0
1617,0.0
1620,0.0
1623,0.0
9,4074340.725594694
1652,0.0
2,1, 7,21, 0,10, 0.00,60.00,SummerDesignDay
891,27.435992271686215
931,24.302323940138746
971,24.74675626639561
1011,25.934954952025526
1051,26.928410709459358
1091,26.422810852504
1131,25.710768098210754
1171,26.070056093505298
1211,25.606929161759156
1251,25.567444929195334
1291,24.887986873855725
1331,24.9594140585221
1371,25.203020495479973
1411,23.96992202513796
2,1, 7,21, 0,11, 0.00,10.00,SummerDesignDay
1524,0.0
1587,0.0
1590,0.0
1593,0.0
1596,0.0
1599,0.0
1602,0.0
1605,0.0
1608,0.0
1611,0.0
1614,0.0
1617,0.0
1620,0.0
1623,0.0
9,4074340.725594694
1652,0.0
2,1, 7,21, 0,11,10.00,20.00,SummerDesignDay
1524,0.0
1587,0.0
1590,0.0
1593,0.0
1596,0.0
1599,0.0
1602,0.0
1605,0.0
1608,0.0
1611,0.0
1614,0.0
1617,0.0
1620,0.0
1623,0.0
9,4074340.725594694
1652,0.0
2,1, 7,21, 0,11,20.00,30.00,SummerDesignDay
1524,0.0
1587,0.0
1590,0.0
1593,0.0
1596,0.0
1599,0.0
1602,0.0
1605,0.0
1608,0.0
1611,0.0
1614,0.0
1617,0.0
1620,0.0
1623,0.0
9,4074340.725594694
1652,0.0
2,1, 7,21, 0,11,30.00,40.00,SummerDesignDay
1524,0.0
1587,0.0
1590,0.0
1593,0.0
1596,0.0
1599,0.0
1602,0.0
1605,0.0
1608,0.0
1611,0.0
1614,0.0
1617,0.0
1620,0.0
1623,0.0
9,4074340.725594694
1652,0.0
2,1, 7,21, 0,11,40.00,50.00,SummerDesignDay
1524,0.0
1587,0.0
1590,0.0
1593,0.0
1596,0.0
1599,0.0
1602,0.0
1605,0.0
1608,0.0
1611,0.0
1614,0.0
1617,0.0
1620,0.0
1623,0.0
9,4074340.725594694
1652,0.0
2,1, 7,21, 0,11,50.00,60.00,SummerDesignDay
1524,0.0
1587,0.0
1590,0.0
1593,0.0
1596,0.0
1599,0.0
1602,0.0
1605,0.0
1608,0.0
1611,0.0
1614,0.0
1617,0.0
1620,0.0
1623,0.0
9,4074340.725594694
1652,0.0
2,1, 7,21, 0,11, 0.00,60.00,SummerDesignDay
891,27.95930951802666
931,25.296844816497186
971,25.884464229150117
1011,26.406927274455414
1051,27.177374560108036
1091,27.41848898830975
1131,26.63980380045994
1171,27.3482314177148
1211,26.73734118903231
1251,26.68759731477191
1291,25.998618004052117
1331,26.04295989866371
1371,26.106251663899628
1411,24.842116797872877
2,1, 7,21, 0,12, 0.00,10.00,SummerDesignDay
1524,0.0
1587,0.0
1590,0.0
1593,0.0
1596,0.0
1599,0.0
1602,0.0
1605,0.0
1608,0.0
1611,0.0
1614,0.0
1617,0.0
1620,0.0
1623,0.0
9,4074340.725594694
1652,0.0
2,1, 7,21, 0,12,10.00,20.00,SummerDesignDay
1524,0.0
1587,0.0
1590,0.0
1593,0.0
1596,0.0
1599,0.0
1602,0.0
1605,0.0
1608,0.0
1611,0.0
1614,0.0
1617,0.0
1620,0.0
1623,0.0
9,4074340.725594694
1652,0.0
2,1, 7,21, 0,12,20.00,30.00,SummerDesignDay
1524,0.0
1587,0.0
1590,0.0
1593,0.0
1596,0.0
1599,0.0
1602,0.0
1605,0.0
1608,0.0
1611,0.0
1614,0.0
1617,0.0
1620,0.0
1623,0.0
9,4074340.725594694
1652,0.0
2,1, 7,21, 0,12,30.00,40.00,SummerDesignDay
1524,0.0
1587,0.0
1590,0.0
1593,0.0
1596,0.0
1599,0.0
1602,0.0
1605,0.0
1608,0.0
1611,0.0
1614,0.0
1617,0.0
1620,0.0
1623,0.0
9,4074340.725594694
1652,0.0
2,1, 7,21, 0,12,40.00,50.00,SummerDesignDay
1524,0.0
1587,0.0
1590,0.0
1593,0.0
1596,0.0
1599,0.0
1602,0.0
1605,0.0
1608,0.0
1611,0.0
1614,0.0
1617,0.0
1620,0.0
1623,0.0
9,4074340.725594694
1652,0.0
2,1, 7,21, 0,12,50.00,60.00,SummerDesignDay
1524,0.0
1587,0.0
1590,0.0
1593,0.0
1596,0.0
1599,0.0
1602,0.0
1605,0.0
1608,0.0
1611,0.0
1614,0.0
1617,0.0
1620,0.0
1623,0.0
9,4074340.725594694
1652,0.0
2,1, 7,21, 0,12, 0.00,60.00,SummerDesignDay
891,28.67596752220376
931,26.187173147671943
971,26.835778701977746
1011,26.85801788064316
1051,27.434634663487235
1091,28.302273344234938
1131,27.429144344890447
1171,28.46016439126736
1211,27.74335640686878
1251,27.6844040027174
1291,26.938417086703379
1331,26.96981257629724
1371,26.90726308358784
1411,25.62476158693613
2,1, 7,21, 0,13, 0.00,10.00,SummerDesignDay
1524,0.0
1587,0.0
1590,0.0
1593,0.0
1596,0.0
1599,0.0
1602,0.0
1605,0.0
1608,0.0
1611,0.0
1614,0.0
1617,0.0
1620,0.0
1623,0.0
9,4074340.725594694
1652,0.0
2,1, 7,21, 0,13,10.00,20.00,SummerDesignDay
1524,0.0
1587,0.0
1590,0.0
1593,0.0
1596,0.0
1599,0.0
1602,0.0
1605,0.0
1608,0.0
1611,0.0
1614,0.0
1617,0.0
1620,0.0
1623,0.0
9,4074340.725594694
1652,0.0
2,1, 7,21, 0,13,20.00,30.00,SummerDesignDay
1524,0.0
1587,0.0
1590,0.0
1593,0.0
1596,0.0
1599,0.0
1602,0.0
1605,0.0
1608,0.0
1611,0.0
1614,0.0
1617,0.0
1620,0.0
1623,0.0
9,4074340.725594694
1652,0.0
2,1, 7,21, 0,13,30.00,40.00,SummerDesignDay
1524,0.0
1587,0.0
1590,0.0
1593,0.0
1596,0.0
1599,0.0
1602,0.0
1605,0.0
1608,0.0
1611,0.0
1614,0.0
1617,0.0
1620,0.0
1623,0.0
9,4074340.725594694
1652,0.0
2,1, 7,21, 0,13,40.00,50.00,SummerDesignDay
1524,0.0
1587,0.0
1590,0.0
1593,0.0
1596,0.0
1599,0.0
1602,0.0
1605,0.0
1608,0.0
1611,0.0
1614,0.0
1617,0.0
1620,0.0
1623,0.0
9,4074340.725594694
1652,0.0
2,1, 7,21, 0,13,50.00,60.00,SummerDesignDay
1524,0.0
1587,0.0
1590,0.0
1593,0.0
1596,0.0
1599,0.0
1602,0.0
1605,0.0
1608,0.0
1611,0.0
1614,0.0
1617,0.0
1620,0.0
1623,0.0
9,4074340.725594694
1652,0.0
2,1, 7,21, 0,13, 0.00,60.00,SummerDesignDay
891,29.211206594788398
931,26.913063272250257
971,27.5919800468411
1011,27.281059318051125
1051,27.708583245647117
1091,29.01528986707451
1131,28.068218915092364
1171,29.316385340776994
1211,28.555774350594466
1251,28.49093585441086
1291,27.692272837265624
1331,27.68547025900584
1371,27.52075442272836
1411,26.282139556948726
2,1, 7,21, 0,14, 0.00,10.00,SummerDesignDay
1524,0.0
1587,0.0
1590,0.0
1593,0.0
1596,0.0
1599,0.0
1602,0.0
1605,0.0
1608,0.0
1611,0.0
1614,0.0
1617,0.0
1620,0.0
1623,0.0
9,4074340.725594694
1652,0.0
2,1, 7,21, 0,14,10.00,20.00,SummerDesignDay
1524,0.0
1587,0.0
1590,0.0
1593,0.0
1596,0.0
1599,0.0
1602,0.0
1605,0.0
1608,0.0
1611,0.0
1614,0.0
1617,0.0
1620,0.0
1623,0.0
9,4074340.725594694
1652,0.0
2,1, 7,21, 0,14,20.00,30.00,SummerDesignDay
1524,0.0
1587,0.0
1590,0.0
1593,0.0
1596,0.0
1599,0.0
1602,0.0
1605,0.0
1608,0.0
1611,0.0
1614,0.0
1617,0.0
1620,0.0
1623,0.0
9,4074340.725594694
1652,0.0
2,1, 7,21, 0,14,30.00,40.00,SummerDesignDay
1524,0.0
1587,0.0
1590,0.0
1593,0.0
1596,0.0
1599,0.0
1602,0.0
1605,0.0
1608,0.0
1611,0.0
1614,0.0
1617,0.0
1620,0.0
1623,0.0
9,4074340.725594694
1652,0.0
2,1, 7,21, 0,14,40.00,50.00,SummerDesignDay
1524,0.0
1587,0.0
1590,0.0
1593,0.0
1596,0.0
1599,0.0
1602,0.0
1605,0.0
1608,0.0
1611,0.0
1614,0.0
1617,0.0
1620,0.0
1623,0.0
9,4074340.725594694
1652,0.0
2,1, 7,21, 0,14,50.00,60.00,SummerDesignDay
1524,0.0
1587,0.0
1590,0.0
1593,0.0
1596,0.0
1599,0.0
1602,0.0
1605,0.0
1608,0.0
1611,0.0
1614,0.0
1617,0.0
1620,0.0
1623,0.0
9,4074340.725594694
1652,0.0
2,1, 7,21, 0,14, 0.00,60.00,SummerDesignDay
891,29.582272276410909
931,27.51263528868188
971,28.182579081086588
1011,27.756948178219188
1051,28.083239731297139
1091,29.631187703616275
1131,28.575697993125819
1171,29.926077528129658
1211,29.17810452512137
1251,29.111537303476398
1291,28.28437864444678
1331,28.25618741324729
1371,28.033233859619487
1411,26.826071316876314
2,1, 7,21, 0,15, 0.00,10.00,SummerDesignDay
1524,0.0
1587,0.0
1590,0.0
1593,0.0
1596,0.0
1599,0.0
1602,0.0
1605,0.0
1608,0.0
1611,0.0
1614,0.0
1617,0.0
1620,0.0
1623,0.0
9,4074340.725594694
1652,0.0
2,1, 7,21, 0,15,10.00,20.00,SummerDesignDay
1524,0.0
1587,0.0
1590,0.0
1593,0.0
1596,0.0
1599,0.0
1602,0.0
1605,0.0
1608,0.0
1611,0.0
1614,0.0
1617,0.0
1620,0.0
1623,0.0
9,4074340.725594694
1652,0.0
2,1, 7,21, 0,15,20.00,30.00,SummerDesignDay
1524,0.0
1587,0.0
1590,0.0
1593,0.0
1596,0.0
1599,0.0
1602,0.0
1605,0.0
1608,0.0
1611,0.0
1614,0.0
1617,0.0
1620,0.0
1623,0.0
9,4074340.725594694
1652,0.0
2,1, 7,21, 0,15,30.00,40.00,SummerDesignDay
1524,0.0
1587,0.0
1590,0.0
1593,0.0
1596,0.0
1599,0.0
1602,0.0
1605,0.0
1608,0.0
1611,0.0
1614,0.0
1617,0.0
1620,0.0
1623,0.0
9,4074340.725594694
1652,0.0
2,1, 7,21, 0,15,40.00,50.00,SummerDesignDay
1524,0.0
1587,0.0
1590,0.0
1593,0.0
1596,0.0
1599,0.0
1602,0.0
1605,0.0
1608,0.0
1611,0.0
1614,0.0
1617,0.0
1620,0.0
1623,0.0
9,4074340.725594694
1652,0.0
2,1, 7,21, 0,15,50.00,60.00,SummerDesignDay
1524,0.0
1587,0.0
1590,0.0
1593,0.0
1596,0.0
1599,0.0
1602,0.0
1605,0.0
1608,0.0
1611,0.0
1614,0.0
1617,0.0
1620,0.0
1623,0.0
9,4074340.725594694
1652,0.0
2,1, 7,21, 0,15, 0.00,60.00,SummerDesignDay
891,29.82472646532023
931,27.898685313832386
971,28.50966840997558
1011,28.237915542884978
1051,28.54653534214931
1091,30.05977826692091
1131,28.885750356259064
1171,30.187075200680757
1211,29.51416249547238
1251,29.44910789235314
1291,28.618431155520488
1331,28.58618552610748
1371,28.362376399436326
1411,27.188730290293774
2,1, 7,21, 0,16, 0.00,10.00,SummerDesignDay
1524,0.0
1587,0.0
1590,0.0
1593,0.0
1596,0.0
1599,0.0
1602,0.0
1605,0.0
1608,0.0
1611,0.0
1614,0.0
1617,0.0
1620,0.0
1623,0.0
9,4074340.725594694
1652,0.0
2,1, 7,21, 0,16,10.00,20.00,SummerDesignDay
1524,0.0
1587,0.0
1590,0.0
1593,0.0
1596,0.0
1599,0.0
1602,0.0
1605,0.0
1608,0.0
1611,0.0
1614,0.0
1617,0.0
1620,0.0
1623,0.0
9,4074340.725594694
1652,0.0
2,1, 7,21, 0,16,20.00,30.00,SummerDesignDay
1524,0.0
1587,0.0
1590,0.0
1593,0.0
1596,0.0
1599,0.0
1602,0.0
1605,0.0
1608,0.0
1611,0.0
1614,0.0
1617,0.0
1620,0.0
1623,0.0
9,4074340.725594694
1652,0.0
2,1, 7,21, 0,16,30.00,40.00,SummerDesignDay
1524,0.0
1587,0.0
1590,0.0
1593,0.0
1596,0.0
1599,0.0
1602,0.0
1605,0.0
1608,0.0
1611,0.0
1614,0.0
1617,0.0
1620,0.0
1623,0.0
9,4074340.725594694
1652,0.0
2,1, 7,21, 0,16,40.00,50.00,SummerDesignDay
1524,0.0
1587,0.0
1590,0.0
1593,0.0
1596,0.0
1599,0.0
1602,0.0
1605,0.0
1608,0.0
1611,0.0
1614,0.0
1617,0.0
1620,0.0
1623,0.0
9,4074340.725594694
1652,0.0
2,1, 7,21, 0,16,50.00,60.00,SummerDesignDay
1524,0.0
1587,0.0
1590,0.0
1593,0.0
1596,0.0
1599,0.0
1602,0.0
1605,0.0
1608,0.0
1611,0.0
1614,0.0
1617,0.0
1620,0.0
1623,0.0
9,4074340.725594694
1652,0.0
2,1, 7,21, 0,16, 0.00,60.00,SummerDesignDay
891,29.906939131866286
931,27.977687428119073
971,28.469841095354185
1011,28.605313357012208
1051,28.99679021689839
1091,30.17899357163071
1131,28.921591047584003
1171,30.02550133346305
1211,29.482404477072007
1251,29.42172830833302
1291,28.59397744527052
1331,28.57417082905339
1371,28.427945774137727
1411,27.290006124509146
2,1, 7,21, 0,17, 0.00,10.00,SummerDesignDay
1524,0.0
1587,0.0
1590,0.0
1593,0.0
1596,0.0
1599,0.0
1602,0.0
1605,0.0
1608,0.0
1611,0.0
1614,0.0
1617,0.0
1620,0.0
1623,0.0
9,4074340.725594694
1652,0.0
2,1, 7,21, 0,17,10.00,20.00,SummerDesignDay
1524,0.0
1587,0.0
1590,0.0
1593,0.0
1596,0.0
1599,0.0
1602,0.0
1605,0.0
1608,0.0
1611,0.0
1614,0.0
1617,0.0
1620,0.0
1623,0.0
9,4074340.725594694
1652,0.0