Program Version,EnergyPlus, Version 8.9.0-eba93e8e1b, YMD=2018.07.24 20:24
1,5,Environment Title[],Latitude[deg],Longitude[deg],Time Zone[],Elevation[m]
2,8,Day of Simulation[],Month[],Day of Month[],DST Indicator[1=yes 0=no],Hour[],StartMinute[],EndMinute[],DayType
3,5,Cumulative Day of Simulation[],Month[],Day of Month[],DST Indicator[1=yes 0=no],DayType  ! When Daily Report Variables Requested
4,2,Cumulative Days of Simulation[],Month[]  ! When Monthly Report Variables Requested
5,1,Cumulative Days of Simulation[] ! When Run Period Report Variables Requested
6,1,Calendar Year of Simulation[] ! When Annual Report Variables Requested
7,1,Environment,Site Outdoor Air Drybulb Temperature [C] !TimeStep
8,9,Environment,Site Outdoor Air Drybulb Temperature [C] !Monthly [Value,Min,Day,Hour,Minute,Max,Day,Hour,Minute]
9,1,THERMAL ZONE 1,Zone Total Internal Total Heating Rate [W] !TimeStep
10,1,THERMAL ZONE 1,Zone People Convective Heating Rate [W] !TimeStep
121,1,SURFACE 102,Surface Outside Face Incident Solar Radiation Rate per Area [W/m2] !TimeStep
122,1,SURFACE 106,Surface Outside Face Incident Solar Radiation Rate per Area [W/m2] !TimeStep
123,1,SURFACE 110,Surface Outside Face Incident Solar Radiation Rate per Area [W/m2] !TimeStep
124,1,SURFACE 116,Surface Outside Face Incident Solar Radiation Rate per Area [W/m2] !TimeStep
125,1,SUB SURFACE 20,Surface Shading Device Is On Time Fraction [] !TimeStep
126,1,SUB SURFACE 17,Surface Shading Device Is On Time Fraction [] !TimeStep
127,1,SURFACE 101,Surface Inside Face Temperature [C] !TimeStep
128,1,THERMAL ZONE 1,Zone Ventilation Mass Flow Rate [kg/s] !TimeStep
252,1,THERMAL ZONE 1,Zone Air Temperature [C] !TimeStep
253,1,THERMAL ZONE 1,Zone Air Temperature [C] !Hourly
254,7,THERMAL ZONE 1,Zone Air Relative Humidity [%] !Daily [Value,Min,Hour,Minute,Max,Hour,Minute]
366,1,ZONE HVAC BASEBOARD RAD CONV WATER,Baseboard Total Heating Rate [W] !TimeStep
367,1,ZONE HVAC BASEBOARD RAD CONV WATER,Baseboard Convective Heating Rate [W] !TimeStep
368,1,ZONE HVAC BASEBOARD RAD CONV WATER,Baseboard Radiant Heating Rate [W] !TimeStep
505,1,HW BOILER,Boiler Mass Flow Rate [kg/s] !TimeStep
12,1,Electricity:Facility [J] !TimeStep
457,1,Gas:Facility [J] !TimeStep
End of Data Dictionary
1,BERLIN ANN CLG .4% CONDNS DB=>MWB,  52.47,  13.40,   1.00,  49.00
2,1, 7,21, 0, 1, 0.00,10.00,SummerDesignDay
7,22.364
9,1155.5371821160688
10,0.0
121,0.0
122,0.0
123,0.0
124,0.0
125,0.0
126,0.0
127,22.24514563142544
128,0.17995600544868735
252,25.990921712037296
366,0.0
367,0.0
368,0.0
505,0.0
12,693322.3092696413
457,0.0
2,1, 7,21, 0, 1,10.00,20.00,SummerDesignDay
7,22.272
9,1155.5371821160688
10,0.0
121,0.0
122,0.0
123,0.0
124,0.0
125,0.0
126,0.0
127,22.18780015918913
128,0.17992084872213638
252,25.88896611503776
366,0.0
367,0.0
368,0.0
505,0.0
12,693322.3092696413
457,0.0
2,1, 7,21, 0, 1,20.00,30.00,SummerDesignDay
7,22.18
9,1155.5371821160688
10,0.0
121,0.0
122,0.0
123,0.0
124,0.0
125,0.0
126,0.0
127,22.13172831222028
128,0.1799090624637486
252,25.795567529851398
366,0.0
367,0.0
368,0.0
505,0.0
12,693322.3092696413
457,0.0
2,1, 7,21, 0, 1,30.00,40.00,SummerDesignDay
7,22.088
9,1155.5371821160688
10,0.0
121,0.0
122,0.0
123,0.0
124,0.0
125,0.0
126,0.0
127,22.077860543247433
128,0.17995559198127498
252,25.708430906881028
366,0.0
367,0.0
368,0.0
505,0.0
12,693322.3092696413
457,0.0
2,1, 7,21, 0, 1,40.00,50.00,SummerDesignDay
7,21.996000000000003
9,1155.5371821160688
10,0.0
121,0.0
122,0.0
123,0.0
124,0.0
125,0.0
126,0.0
127,22.025687983070094
128,0.18004484613232545
252,25.62384220661827
366,0.0
367,0.0
368,0.0
505,0.0
12,693322.3092696413
457,0.0
2,1, 7,21, 0, 1,50.00,60.00,SummerDesignDay
7,21.904
9,1155.5371821160688
10,0.0
121,0.0
122,0.0
123,0.0
124,0.0
125,0.0
126,0.0
127,21.975018085146329
128,0.1801515311665013
252,25.53993226912819
366,0.0
367,0.0
368,0.0
505,0.0
12,693322.3092696413
457,0.0
2,1, 7,21, 0, 1, 0.00,60.00,SummerDesignDay
253,25.757943456592327
2,1, 7,21, 0, 2, 0.00,10.00,SummerDesignDay
7,21.842666666666668
9,1155.5371821160688
10,0.0
121,0.0
122,0.0
123,0.0
124,0.0
125,0.0
126,0.0
127,21.925505853555124
128,0.1800349806134416
252,25.462463790018174
366,0.0
367,0.0
368,0.0
505,0.0
12,693322.3092696413
457,0.0
2,1, 7,21, 0, 2,10.00,20.00,SummerDesignDay
7,21.781333333333334
9,1155.5371821160688
10,0.0
121,0.0
122,0.0
123,0.0
124,0.0
125,0.0
126,0.0
127,21.877908871621153
128,0.17996233289384359
252,25.391882986414868
366,0.0
367,0.0
368,0.0
505,0.0
12,693322.3092696413
457,0.0
2,1, 7,21, 0, 2,20.00,30.00,SummerDesignDay
7,21.72
9,1155.5371821160688
10,0.0
121,0.0
122,0.0
123,0.0
124,0.0
125,0.0
126,0.0
127,21.83201776539067
128,0.17993665891723385
252,25.325292961332317
366,0.0
367,0.0
368,0.0
505,0.0
12,693322.3092696413
457,0.0
2,1, 7,21, 0, 2,30.00,40.00,SummerDesignDay
7,21.65866666666667
9,1155.5371821160688
10,0.0
121,0.0
122,0.0
123,0.0
124,0.0
125,0.0
126,0.0
127,21.787806698425184
128,0.17993821236808844
252,25.260270520244775
366,0.0
367,0.0
368,0.0
505,0.0
12,693322.3092696413
457,0.0
2,1, 7,21, 0, 2,40.00,50.00,SummerDesignDay
7,21.59733333333333
9,1155.5371821160688
10,0.0
121,0.0
122,0.0
123,0.0
124,0.0
125,0.0
126,0.0
127,21.74456451816129
128,0.17995047016238806
252,25.195870374016676
366,0.0
367,0.0
368,0.0
505,0.0
12,693322.3092696413
457,0.0
2,1, 7,21, 0, 2,50.00,60.00,SummerDesignDay
7,21.536
9,1155.5371821160688
10,0.0
121,0.0
122,0.0
123,0.0
124,0.0
125,0.0
126,0.0
127,21.702476086149223
128,0.17996698104564425
252,25.132079355658008
366,0.0
367,0.0
368,0.0
505,0.0
12,693322.3092696413
457,0.0
2,1, 7,21, 0, 2, 0.00,60.00,SummerDesignDay
253,25.2946433312808
2,1, 7,21, 0, 3, 0.00,10.00,SummerDesignDay
7,21.490000000000003
9,1155.5371821160688
10,0.0
121,0.0
122,0.0
123,0.0
124,0.0
125,0.0
126,0.0
127,21.66130382462316
128,0.17987357245089859
252,25.071978274744909
366,0.0
367,0.0
368,0.0
505,0.0
12,693322.3092696413
457,0.0
2,1, 7,21, 0, 3,10.00,20.00,SummerDesignDay
7,21.444000000000004
9,1155.5371821160688
10,0.0
121,0.0
122,0.0
123,0.0
124,0.0
125,0.0
126,0.0
127,21.621543284343099
128,0.17980533956706466
252,25.015663307334198
366,0.0
367,0.0
368,0.0
505,0.0
12,693322.3092696413
457,0.0
2,1, 7,21, 0, 3,20.00,30.00,SummerDesignDay
7,21.398
9,1155.5371821160688
10,0.0
121,0.0
122,0.0
123,0.0
124,0.0
125,0.0
126,0.0
127,21.582947461390565
128,0.17976294947864006
252,24.96151600798351
366,0.0
367,0.0
368,0.0
505,0.0
12,693322.3092696413
457,0.0
2,1, 7,21, 0, 3,30.00,40.00,SummerDesignDay
7,21.352
9,1155.5371821160688
10,0.0
121,0.0
122,0.0
123,0.0
124,0.0
125,0.0
126,0.0
127,21.545568855510135
128,0.17973535928634644
252,24.90829909102721
366,0.0
367,0.0
368,0.0
505,0.0
12,693322.3092696413
457,0.0
2,1, 7,21, 0, 3,40.00,50.00,SummerDesignDay
7,21.306
9,1155.5371821160688
10,0.0
121,0.0
122,0.0
123,0.0
124,0.0
125,0.0
126,0.0
127,21.50893401163302
128,0.1797141169414095
252,24.855542276938427
366,0.0
367,0.0
368,0.0
505,0.0
12,693322.3092696413
457,0.0
2,1, 7,21, 0, 3,50.00,60.00,SummerDesignDay
7,21.26
9,1155.5371821160688
10,0.0
121,0.0
122,0.0
123,0.0
124,0.0
125,0.0
126,0.0
127,21.473190109794964
128,0.17969601439706543
252,24.80329748424943
366,0.0
367,0.0
368,0.0
505,0.0
12,693322.3092696413
457,0.0
2,1, 7,21, 0, 3, 0.00,60.00,SummerDesignDay
253,24.93604940704628
2,1, 7,21, 0, 4, 0.00,10.00,SummerDesignDay
7,21.214
9,1155.5371821160688
10,0.0
121,0.0
122,0.0
123,0.0
124,0.0
125,0.0
126,0.0
127,21.438038195244169
128,0.17968140655907037
252,24.751627368115565
366,0.0
367,0.0
368,0.0
505,0.0
12,693322.3092696413
457,0.0
2,1, 7,21, 0, 4,10.00,20.00,SummerDesignDay
7,21.168
9,1155.5371821160688
10,0.0
121,0.0
122,0.0
123,0.0
124,0.0
125,0.0
126,0.0
127,21.40366201495948
128,0.17967072134658844
252,24.700560737981165
366,0.0
367,0.0
368,0.0
505,0.0
12,693322.3092696413
457,0.0
2,1, 7,21, 0, 4,20.00,30.00,SummerDesignDay
7,21.122
9,1155.5371821160688
10,0.0
121,0.0
122,0.0
123,0.0
124,0.0
125,0.0
126,0.0
127,21.369816163546046
128,0.1796641614359068
252,24.650024076249136
366,0.0
367,0.0
368,0.0
505,0.0
12,693322.3092696413
457,0.0
2,1, 7,21, 0, 4,30.00,40.00,SummerDesignDay
7,21.076
9,1155.5371821160688
10,0.0
121,0.0
122,0.0
123,0.0
124,0.0
125,0.0
126,0.0
127,21.33664744802604
128,0.1796612240921736
252,24.599981633568978
366,0.0
367,0.0
368,0.0
505,0.0
12,693322.3092696413
457,0.0
2,1, 7,21, 0, 4,40.00,50.00,SummerDesignDay
7,21.03
9,1155.5371821160688
10,0.0
121,0.0
122,0.0
123,0.0
124,0.0
125,0.0
126,0.0
127,21.30393649728344
128,0.1796616646408043
252,24.550373399920617
366,0.0
367,0.0
368,0.0
505,0.0
12,693322.3092696413
457,0.0
2,1, 7,21, 0, 4,50.00,60.00,SummerDesignDay
7,20.984
9,1155.5371821160688
10,0.0
121,0.0
122,0.0
123,0.0
124,0.0
125,0.0
126,0.0
127,21.27181592130698
128,0.1796650776739427
252,24.50119195636596
366,0.0
367,0.0
368,0.0
505,0.0
12,693322.3092696413
457,0.0
2,1, 7,21, 0, 4, 0.00,60.00,SummerDesignDay
253,24.625626528700239
2,1, 7,21, 0, 5, 0.00,10.00,SummerDesignDay
7,20.953333333333334
9,1155.5371821160688
10,0.0
121,0.0
122,0.0
123,0.0
124,0.0
125,0.0
126,0.0
127,21.240235981155359
128,0.17955713200273785
252,24.45536527818061
366,0.0
367,0.0
368,0.0
505,0.0
12,693322.3092696413
457,0.0
2,1, 7,21, 0, 5,10.00,20.00,SummerDesignDay
7,20.922666666666666
9,1155.5371821160688
10,0.0
121,5.557434379427351
122,5.557432237797178
123,11.588144755376347
124,14.369087386274585
125,0.0
126,0.0
127,21.22915635837841
128,0.17947211994050558
252,24.415941766100607
366,0.0
367,0.0
368,0.0
505,0.0
12,693322.3092696413
457,0.0
2,1, 7,21, 0, 5,20.00,30.00,SummerDesignDay
7,20.892000000000004
9,1155.5371821160688
10,0.0
121,9.162112593884136
122,9.162109097342256
123,27.18198196250713
124,37.53174375121483
125,0.0
126,1.0
127,21.213623617537026
128,0.17943090867110959
252,24.385127354521904
366,0.0
367,0.0
368,0.0
505,0.0
12,693322.3092696413
457,0.0
2,1, 7,21, 0, 5,30.00,40.00,SummerDesignDay
7,20.861333333333336
9,1155.5371821160688
10,0.0
121,13.866563434318424
122,13.866558158203177
123,55.31808779726204
124,84.30753428848016
125,0.0
126,1.0
127,21.215213719429888
128,0.17944861356450046
252,24.3615342145705
366,0.0
367,0.0
368,0.0
505,0.0
12,693322.3092696413
457,0.0
2,1, 7,21, 0, 5,40.00,50.00,SummerDesignDay
7,20.830666666666667
9,1155.5371821160688
10,0.0
121,19.280417156623657
122,19.280409864764047
123,90.17334334383628
124,149.61917738802954
125,0.0
126,1.0
127,21.226883653721317
128,0.17951575151633326
252,24.34444858630089
366,0.0
367,0.0
368,0.0
505,0.0
12,693322.3092696413
457,0.0
2,1, 7,21, 0, 5,50.00,60.00,SummerDesignDay
7,20.8
9,1155.5371821160688
10,0.0
121,24.19535918360034
122,24.195350214033654
123,111.68422139599216
124,198.72964907339009
125,0.0
126,1.0
127,21.236209140944657
128,0.17962745181810364
252,24.33141555785145
366,0.0
367,0.0
368,0.0
505,0.0
12,693322.3092696413
457,0.0
2,1, 7,21, 0, 5, 0.00,60.00,SummerDesignDay
253,24.38230545958766
2,1, 7,21, 0, 6, 0.00,10.00,SummerDesignDay
7,20.830666666666667
9,1155.5371821160688
10,0.0
121,29.191650814422635
122,29.191640221768357
123,127.90834083077452
124,243.6603511773678
125,1.0
126,1.0
127,21.23955760068727
128,0.17930959014918569
252,24.335354882469166
366,0.0
367,0.0
368,0.0
505,0.0
12,693322.3092696413
457,0.0
2,1, 7,21, 0, 6,10.00,20.00,SummerDesignDay
7,20.861333333333336
9,1155.5371821160688
10,0.0
121,34.22059522491912
122,34.22058307749289
123,141.47950191163998
124,289.1508400287189
125,1.0
126,1.0
127,21.25112419244106
128,0.17910795791506679
252,24.35194844443971
366,0.0
367,0.0
368,0.0
505,0.0
12,693322.3092696413
457,0.0
2,1, 7,21, 0, 6,20.00,30.00,SummerDesignDay
7,20.892000000000004
9,1155.5371821160688
10,0.0
121,40.95109614728264
122,40.95108170795615
123,161.3508873290091
124,355.7757650006191
125,1.0
126,1.0
127,21.27284947608545
128,0.17899296753609973
252,24.37494550512526
366,0.0
367,0.0
368,0.0
505,0.0
12,693322.3092696413
457,0.0
2,1, 7,21, 0, 6,30.00,40.00,SummerDesignDay
7,20.922666666666666
9,1155.5371821160688
10,0.0
121,46.05919789219229
122,46.05918199806393
123,168.252071089466
124,400.04055717385048
125,1.0
126,1.0
127,21.28876791684391
128,0.17892182104579838
252,24.39914321264128
366,0.0
367,0.0
368,0.0
505,0.0
12,693322.3092696413
457,0.0
2,1, 7,21, 0, 6,40.00,50.00,SummerDesignDay
7,20.953333333333334
9,1155.5371821160688
10,0.0
121,51.09967132973943
122,51.099654067927648
123,171.8239985278331
124,441.9719849261006
125,1.0
126,1.0
127,21.304201991568186
128,0.17885890253847945
252,24.422446477439864
366,0.0
367,0.0
368,0.0
505,0.0
12,693322.3092696413
457,0.0
2,1, 7,21, 0, 6,50.00,60.00,SummerDesignDay
7,20.984
9,1155.5371821160688
10,0.0
121,56.05891176923052
122,56.0588932250775
123,172.24475527889318
124,481.22516234980898
125,1.0
126,1.0
127,21.318954007341273
128,0.17878987793939855
252,24.4449509614624
366,0.0
367,0.0
368,0.0
505,0.0
12,693322.3092696413
457,0.0
2,1, 7,21, 0, 6, 0.00,60.00,SummerDesignDay
253,24.38813158059628
2,1, 7,21, 0, 7, 0.00,10.00,SummerDesignDay
7,21.091333333333336
9,1626.5885157669134
10,329.7359335555914
121,60.85128245439181
122,60.85126274654854
123,169.5818900791732
124,517.1433873244697
125,1.0
126,1.0
127,21.38529971817846
128,0.1788981296309773
252,24.812150009510387
366,0.0
367,0.0
368,0.0
505,0.0
12,693322.3092696413
457,0.0
2,1, 7,21, 0, 7,10.00,20.00,SummerDesignDay
7,21.198666666666669
9,1626.5885157669134
10,329.7359335555914
121,65.62794348678918
122,65.62792265504241
123,164.45895861523327
124,550.6089132040942
125,1.0
126,1.0
127,21.479437143468084
128,0.1816259137087421
252,25.247134347805078
366,0.0
367,0.0
368,0.0
505,0.0
12,693322.3092696413
457,0.0
2,1, 7,21, 0, 7,20.00,30.00,SummerDesignDay
7,21.306
9,1626.5885157669134
10,329.7359335555914
121,70.29545958994805
122,70.29543771235805
123,156.9195213135962
124,581.0043750294649
125,1.0
126,1.0
127,21.560218944408797
128,0.18246731854425417
252,25.468229592433084
366,0.0
367,0.0
368,0.0
505,0.0
12,693322.3092696413
457,0.0
2,1, 7,21, 0, 7,30.00,40.00,SummerDesignDay
7,21.413333333333335
9,1626.5885157669134
10,329.7359335555914
121,74.84823960792567
122,74.8482167594552
123,147.2181750658792
124,608.3159969811867
125,1.0
126,1.0
127,21.61878934347766
128,0.1827405188648439
252,25.544189516301814
366,0.0
367,0.0
368,0.0
505,0.0
12,693322.3092696413
457,0.0
2,1, 7,21, 0, 7,40.00,50.00,SummerDesignDay
7,21.520666666666668
9,1626.5885157669134
10,329.7359335555914
121,79.28144873114472
122,79.281424983715
123,135.5977989880841
124,632.552543374925
125,1.0
126,1.0
127,21.662992989935895
128,0.18245970844826796
252,25.59222638601206
366,0.0
367,0.0
368,0.0
505,0.0
12,693322.3092696413
457,0.0
2,1, 7,21, 0, 7,50.00,60.00,SummerDesignDay
7,21.628
9,1626.5885157669134
10,329.7359335555914
121,83.5908392221528
122,83.59081464471848
123,122.28795525230453
124,653.7380034241911
125,1.0
126,1.0
127,21.69856552663074
128,0.18198848688467254
252,25.65961204240847
366,0.0
367,0.0
368,0.0
505,0.0
12,693322.3092696413
457,0.0
2,1, 7,21, 0, 7, 0.00,60.00,SummerDesignDay
253,25.387256982411814
2,1, 7,21, 0, 8, 0.00,10.00,SummerDesignDay
7,21.888666666666667
9,1626.5885157669134
10,329.7359335555914
121,87.77263227928697
122,87.77260693791743
123,107.50461220231229
124,671.9069540212462
125,1.0
126,1.0
127,21.735462307360807
128,0.1805094394341133
252,25.765447045567897
366,0.0
367,0.0
368,0.0
505,0.0
12,693322.3092696413
457,0.0
2,1, 7,21, 0, 8,10.00,20.00,SummerDesignDay
7,22.14933333333333
9,1626.5885157669134
10,329.7359335555914
121,96.42255317920886
122,96.04509638853236
123,96.04512444239522
124,698.5486987824215
125,1.0
126,1.0
127,21.783582764083968
128,0.1792950125055241
252,25.895024442798716
366,0.0
367,0.0
368,0.0
505,0.0
12,693322.3092696413
457,0.0
2,1, 7,21, 0, 8,20.00,30.00,SummerDesignDay
7,22.41
9,1626.5885157669134
10,329.7359335555914
121,121.510634741995
122,99.79858368533172
123,99.7986123015286
124,711.5418868594224
125,1.0
126,1.0
127,21.83101449204476
128,0.1782443756437111
252,26.028884439731848
366,0.0
367,0.0
368,0.0
505,0.0
12,693322.3092696413
457,0.0
2,1, 7,21, 0, 8,30.00,40.00,SummerDesignDay
7,22.67066666666667
9,1626.5885157669134
10,329.7359335555914
121,147.26214611610846
122,103.39211019906583
123,103.39213930869781
124,721.5144459426691
125,1.0
126,1.0
127,21.87955777840605
128,0.17722472210601299
252,26.159105531409354
366,0.0
367,0.0
368,0.0
505,0.0
12,693322.3092696413
457,0.0
2,1, 7,21, 0, 8,40.00,50.00,SummerDesignDay
7,22.931333333333336
9,1626.5885157669134
10,329.7359335555914
121,173.49643636763393
122,106.82514479546154
123,106.825174333172
124,728.5314025748788
125,1.0
126,1.0
127,21.927502529197896
128,0.17618213269090925
252,26.28623481098946
366,0.0
367,0.0
368,0.0
505,0.0
12,693322.3092696413
457,0.0
2,1, 7,21, 0, 8,50.00,60.00,SummerDesignDay
7,23.192
9,1626.5885157669134
10,329.7359335555914
121,200.04409970794655
122,110.09738313210092
123,110.09741303601257
124,732.6607608872265
125,1.0
126,1.0
127,21.975085657157139
128,0.17512038261661043
252,26.41254055577229
366,0.0
367,0.0
368,0.0
505,0.0
12,693322.3092696413
457,0.0
2,1, 7,21, 0, 8, 0.00,60.00,SummerDesignDay
253,26.091206137711596
2,1, 7,21, 0, 9, 0.00,10.00,SummerDesignDay
7,23.483333333333336
9,1626.5885157669134
10,329.7359335555914
121,226.74605154854465
122,113.20875325411014
123,113.2087834657769
124,733.9733088088533
125,1.0
126,1.0
127,22.022517447036465
128,0.17382888129465044
252,26.54341779346116
366,0.0
367,0.0
368,0.0
505,0.0
12,693322.3092696413
457,0.0
2,1, 7,21, 0, 9,10.00,20.00,SummerDesignDay
7,23.77466666666667
9,1626.5885157669134
10,329.7359335555914
121,253.4527127825689
122,116.15942693187809
123,116.15945739625187
124,732.5425360226701
125,1.0
126,1.0
127,22.070693646196085
128,0.172570896292324
252,26.67828344501243
366,0.0
367,0.0
368,0.0
505,0.0
12,693322.3092696413
457,0.0
2,1, 7,21, 0, 9,20.00,30.00,SummerDesignDay
7,24.066000000000004
9,1626.5885157669134
10,329.7359335555914
121,280.02329857370008
122,118.94983548206378
123,118.94986614747589
124,728.4446209015562
125,1.0
126,1.0
127,22.11955505096083
128,0.17134238029266128
252,26.814216945075257
366,0.0
367,0.0
368,0.0
505,0.0
12,693322.3092696413
457,0.0
2,1, 7,21, 0, 9,30.00,40.00,SummerDesignDay
7,24.357333333333334
9,1626.5885157669134
10,329.7359335555914
121,306.325203942871
122,121.58068911004686
123,121.5807199282042
124,721.7584587069279
125,1.0
126,1.0
127,22.168983108799446
128,0.17012349350014806
252,26.949587088651666
366,0.0
367,0.0
368,0.0
505,0.0
12,693322.3092696413
457,0.0
2,1, 7,21, 0, 9,40.00,50.00,SummerDesignDay
7,24.648666666666668
9,1626.5885157669134
10,329.7359335555914
121,332.23347679249158
122,124.05299897934252
123,124.05302990533783
124,712.5657132489943
125,1.0
126,1.0
127,22.218417619696426
128,0.16890318472305577
252,27.08412242867324
366,0.0
367,0.0
368,0.0
505,0.0
12,693322.3092696413
457,0.0
2,1, 7,21, 0, 9,50.00,60.00,SummerDesignDay
7,24.94
9,1626.5885157669134
10,329.7359335555914
121,357.63036867702268
122,126.36810127544404
123,126.36813226778067
124,700.9508807524135
125,1.0
126,1.0
127,22.267920894652606
128,0.167679627674085
252,27.2181267333761
366,0.0
367,0.0
368,0.0
505,0.0
12,693322.3092696413
457,0.0
2,1, 7,21, 0, 9, 0.00,60.00,SummerDesignDay
253,26.881292405708309
2,1, 7,21, 0,10, 0.00,10.00,SummerDesignDay
7,25.200666666666668
9,1626.5885157669134
10,329.7359335555914
121,382.4049540152609
122,128.52768249947284
123,128.5277135201032
124,687.001358964778
125,1.0
126,1.0
127,22.316935522958027
128,0.16667882455206527
252,27.347486564969583
366,0.0
367,0.0
368,0.0
505,0.0
12,693322.3092696413
457,0.0
2,1, 7,21, 0,10,10.00,20.00,SummerDesignDay
7,25.461333333333334
9,1626.5885157669134
10,329.7359335555914
121,406.4528091903154
122,130.533805103563
123,130.5338361179402
124,670.8075173031532
125,1.0
126,1.0
127,22.36482040926407
128,0.16564847067455533
252,27.472469362236546
366,0.0
367,0.0
368,0.0
505,0.0
12,693322.3092696413
457,0.0
2,1, 7,21, 0,10,20.00,30.00,SummerDesignDay
7,25.722
9,1626.5885157669134
10,329.7359335555914
121,429.6757438936503
122,132.3889323621639
123,132.38896333930567
124,652.4627655054162
125,1.0
126,1.0
127,22.411232732906094
128,0.1645904435306752
252,27.594876666077736
366,0.0
367,0.0
368,0.0
505,0.0
12,693322.3092696413
457,0.0
2,1, 7,21, 0,10,30.00,40.00,SummerDesignDay
7,25.982666666666668
9,1626.5885157669134
10,329.7359335555914
121,451.981578023961
122,134.0959510561228
123,134.0959819686862
124,632.0636191125506
125,1.0
126,1.0
127,22.456581989804897
128,0.16351693339375457
252,27.71589893146938
366,0.0
367,0.0
368,0.0
505,0.0
12,693322.3092696413
457,0.0
2,1, 7,21, 0,10,40.00,50.00,SummerDesignDay
7,26.243333333333334
9,1626.5885157669134
10,329.7359335555914
121,473.2839583861315
122,135.65819012603633
123,135.6582209504009
124,609.7097603123607
125,1.0
126,1.0
127,22.500534506758024
128,0.1624359849677261
252,27.835553049228169
366,0.0
367,0.0
368,0.0
505,0.0
12,693322.3092696413
457,0.0
2,1, 7,21, 0,10,50.00,60.00,SummerDesignDay
7,26.504
9,1626.5885157669134
10,329.7359335555914
121,493.50221031523327
122,137.07943293216705
123,137.07946364852308
124,585.5040923044662
125,1.0
126,1.0
127,22.544500256012875
128,0.16134772949340024
252,27.953918650862023
366,0.0
367,0.0
368,0.0
505,0.0
12,693322.3092696413
457,0.0
2,1, 7,21, 0,10, 0.00,60.00,SummerDesignDay
253,27.65336720414057
2,1, 7,21, 0,11, 0.00,10.00,SummerDesignDay
7,26.734
9,1626.5885157669134
10,329.7359335555914
121,512.5612201549907
122,138.36392016049448
123,138.36395075293184
124,559.552784436805
125,1.0
126,1.0
127,22.588845109276567
128,0.16047488880639802
252,28.067414368451229
366,0.0
367,0.0
368,0.0
505,0.0
12,693322.3092696413
457,0.0
2,1, 7,21, 0,11,10.00,20.00,SummerDesignDay
7,26.964
9,1626.5885157669134
10,329.7359335555914
121,530.3913452335989
122,139.5163397856433
123,139.5163702422343
124,531.9653039383279
125,1.0
126,1.0
127,22.635414816037789
128,0.15957073337814607
252,28.177453794275207
366,0.0
367,0.0
368,0.0
505,0.0
12,693322.3092696413
457,0.0
2,1, 7,21, 0,11,20.00,30.00,SummerDesignDay
7,27.194
9,1626.5885157669134
10,329.7359335555914
121,546.9283485845729
122,140.54179992926306
123,140.54183024213135
124,502.8544281778817
125,1.0
126,1.0
127,22.68557893438812
128,0.15864480542545129
252,28.287942626796594
366,0.0
367,0.0
368,0.0
505,0.0
12,693322.3092696413
457,0.0
2,1, 7,21, 0,11,30.00,40.00,SummerDesignDay
7,27.424
9,1626.5885157669134
10,329.7359335555914
121,562.1133561324892
122,141.44578007754618
123,141.44581024291134
124,472.33622913032596
125,1.0
126,1.0
127,22.73655331225655
128,0.15772330166635263
252,28.400553046756973
366,0.0
367,0.0
368,0.0
505,0.0
12,693322.3092696413
457,0.0
2,1, 7,21, 0,11,40.00,50.00,SummerDesignDay
7,27.654
9,1626.5885157669134
10,329.7359335555914
121,575.8928343715278
122,142.23405614391045
123,142.23408616209543
124,440.5300193612528
125,1.0
126,1.0
127,22.788304358208536
128,0.15681740158329919
252,28.51474797556174
366,0.0
367,0.0
368,0.0
505,0.0
12,693322.3092696413
457,0.0
2,1, 7,21, 0,11,50.00,60.00,SummerDesignDay
7,27.884
9,1626.5885157669134
10,329.7359335555914
121,588.2185866717748
122,142.9125955324996
123,142.9126254078873
124,407.5582467510065
125,1.0
126,1.0
127,22.84111774502177
128,0.15592347756028264
252,28.62986073237977
366,0.0
367,0.0
368,0.0
505,0.0
12,693322.3092696413
457,0.0
2,1, 7,21, 0,11, 0.00,60.00,SummerDesignDay
253,28.346328757370249
2,1, 7,21, 0,12, 0.00,10.00,SummerDesignDay
7,28.037333333333334
9,1626.5885157669134
10,329.7359335555914
121,599.047766220193
122,143.4874199387082
123,143.4874496796314
124,373.5463239562585
125,1.0
126,1.0
127,22.893988103696097
128,0.15558873761661055
252,28.736192015353489
366,0.0
367,0.0
368,0.0
505,0.0
12,693322.3092696413
457,0.0
2,1, 7,21, 0,12,10.00,20.00,SummerDesignDay
7,28.190666666666666
9,1626.5885157669134
10,329.7359335555914
121,608.3429032230889
122,143.9644363167783
123,143.96446593532807
124,338.6223789987434
125,1.0
126,1.0
127,22.94600151354133
128,0.15519569748924959
252,28.83448995949091
366,0.0
367,0.0
368,0.0
505,0.0
12,693322.3092696413
457,0.0
2,1, 7,21, 0,12,20.00,30.00,SummerDesignDay
7,28.344
9,1626.5885157669134
10,329.7359335555914
121,616.0719433856463
122,144.34924027997946
123,144.34926979171906
124,302.9169161515595
125,1.0
126,1.0
127,22.996611989539884
128,0.15474943954369003
252,28.929630235584435
366,0.0
367,0.0
368,0.0
505,0.0
12,693322.3092696413
457,0.0
2,1, 7,21, 0,12,30.00,40.00,SummerDesignDay
7,28.497333333333335
9,1626.5885157669134
10,329.7359335555914
121,614.6596162554462
122,148.43893799912403
123,148.43896922977454
124,267.45928865986977
125,1.0
126,1.0
127,23.051528046714937
128,0.15428257031255802
252,29.026021622158074
366,0.0
367,0.0
368,0.0
505,0.0
12,693322.3092696413
457,0.0
2,1, 7,21, 0,12,40.00,50.00,SummerDesignDay
7,28.650666666666667
9,1626.5885157669134
10,329.7359335555914
121,619.0558554462067
122,148.61683031503785
123,148.61686146115043
124,231.43551791240788
125,1.0
126,1.0
127,23.101897878411799
128,0.15382451758902575
252,29.123123012434467
366,0.0
367,0.0
368,0.0
505,0.0
12,693322.3092696413
457,0.0
2,1, 7,21, 0,12,50.00,60.00,SummerDesignDay
7,28.804
9,1626.5885157669134
10,329.7359335555914
121,621.8678447132346
122,148.72826358580245
123,148.72829467679564
124,195.04887949478275
125,1.0
126,1.0
127,23.152403446615336
128,0.1533716631647711
252,29.219621840293138
366,0.0
367,0.0
368,0.0
505,0.0
12,693322.3092696413
457,0.0
2,1, 7,21, 0,12, 0.00,60.00,SummerDesignDay
253,28.978179780885755
2,1, 7,21, 0,13, 0.00,10.00,SummerDesignDay
7,28.926666666666667
9,1626.5885157669134
10,329.7359335555914
121,623.0865515545028
122,148.77598189996335
123,148.77601296681108
124,158.43269938751855
125,1.0
126,1.0
127,23.20246114413761
128,0.1531350627728414
252,29.311611486240133
366,0.0
367,0.0
368,0.0
505,0.0
12,693322.3092696413
457,0.0
2,1, 7,21, 0,13,10.00,20.00,SummerDesignDay
7,29.049333333333335
9,1626.5885157669134
10,329.7359335555914
121,622.7080695720517
122,175.80297538604445
123,148.76123176844309
124,148.76123176844306
125,1.0
126,1.0
127,23.259261241004788
128,0.1528686300870285
252,29.402306810828884
366,0.0
367,0.0
368,0.0
505,0.0
12,693322.3092696413
457,0.0
2,1, 7,21, 0,13,20.00,30.00,SummerDesignDay
7,29.172
9,1626.5885157669134
10,329.7359335555914
121,620.7336114054348
122,212.32695509104304
123,148.68357190888498
124,148.68357190888492
125,1.0
126,1.0
127,23.327667186267843
128,0.15259379853604586
252,29.497784128553208
366,0.0
367,0.0
368,0.0
505,0.0
12,693322.3092696413
457,0.0
2,1, 7,21, 0,13,30.00,40.00,SummerDesignDay
7,29.294666666666669
9,1626.5885157669134
10,329.7359335555914
121,617.1695109463733
122,248.55828792659669
123,148.5410803089105
124,148.54108030891048
125,1.0
126,1.0
127,23.403918680607977
128,0.15235100654489718
252,29.601321093727419
366,0.0
367,0.0
368,0.0
505,0.0
12,693322.3092696413
457,0.0
2,1, 7,21, 0,13,40.00,50.00,SummerDesignDay
7,29.417333333333333
9,1626.5885157669134
10,329.7359335555914
121,612.0272346009575
122,284.3634619077075
123,148.33033479825267
124,148.33033479825265
125,1.0
126,1.0
127,23.48418492285087
128,0.15216201375236519
252,29.711560196121014
366,0.0
367,0.0
368,0.0
505,0.0
12,693322.3092696413
457,0.0
2,1, 7,21, 0,13,50.00,60.00,SummerDesignDay
7,29.54
9,1626.5885157669134
10,329.7359335555914
121,612.6067088307269
122,319.92446549853437
123,144.17810176305486
124,144.17810176305484
125,1.0
126,1.0
127,23.564316449885376
128,0.1520177302077913
252,29.825559070089608
366,0.0
367,0.0
368,0.0
505,0.0
12,693322.3092696413
457,0.0
2,1, 7,21, 0,13, 0.00,60.00,SummerDesignDay
253,29.558357130926713
2,1, 7,21, 0,14, 0.00,10.00,SummerDesignDay
7,29.616666666666668
9,1626.5885157669134
10,329.7359335555914
121,604.1319495384633
122,355.27600795424487
123,143.75027541465458
124,143.75027541465455
125,1.0
126,1.0
127,23.647559736871469
128,0.15222735873801844
252,29.936375231813558
366,0.0
367,0.0
368,0.0
505,0.0
12,693322.3092696413
457,0.0
2,1, 7,21, 0,14,10.00,20.00,SummerDesignDay
7,29.69333333333333
9,1626.5885157669134
10,329.7359335555914
121,594.1056039178658
122,389.7839250552313
123,143.2276375330993
124,143.22763753309926
125,1.0
126,1.0
127,23.730299182606623
128,0.1524157318555001
252,30.043986373841176
366,0.0
367,0.0
368,0.0
505,0.0
12,693322.3092696413
457,0.0
2,1, 7,21, 0,14,20.00,30.00,SummerDesignDay
7,29.77
9,1626.5885157669134
10,329.7359335555914
121,582.56229767834
122,423.3187902814232
123,142.60441902711677
124,142.6044190271167
125,1.0
126,1.0
127,23.811850806673204
128,0.15258271996042625
252,30.150975294816229
366,0.0
367,0.0
368,0.0
505,0.0
12,693322.3092696413
457,0.0
2,1, 7,21, 0,14,30.00,40.00,SummerDesignDay
7,29.846666666666669
9,1626.5885157669134
10,329.7359335555914
121,569.5420526081328
122,455.75372572281557
123,141.87463560080225
124,141.8746356008022
125,1.0
126,1.0
127,23.89317811327761
128,0.15274548992368187
252,30.25878568792337
366,0.0
367,0.0
368,0.0
505,0.0
12,693322.3092696413
457,0.0
2,1, 7,21, 0,14,40.00,50.00,SummerDesignDay
7,29.923333333333333
9,1626.5885157669134
10,329.7359335555914
121,555.0902530196523
122,486.964697631425
123,141.0322721071681
124,141.03227210716808
125,1.0
126,1.0
127,23.97440924988653
128,0.15291363322765393
252,30.367318724461968
366,0.0
367,0.0
368,0.0
505,0.0
12,693322.3092696413
457,0.0
2,1, 7,21, 0,14,50.00,60.00,SummerDesignDay
7,30.0
9,1626.5885157669134
10,329.7359335555914
121,539.2576249744188
122,516.8307268766084
123,140.0714367692719
124,140.07143676927189
125,1.0
126,1.0
127,24.0557753962267
128,0.15308648680452234
252,30.476091865570944
366,0.0
367,0.0
368,0.0
505,0.0
12,693322.3092696413
457,0.0
2,1, 7,21, 0,14, 0.00,60.00,SummerDesignDay
253,30.205588863071204
2,1, 7,21, 0,15, 0.00,10.00,SummerDesignDay
7,30.0
9,1626.5885157669134
10,329.7359335555914
121,522.1002309570918
122,545.234026793205
123,138.98648295412716
124,138.9864829541271
125,1.0
126,1.0
127,24.137909018776573
128,0.15380851541518493
252,30.576089927250508
366,0.0
367,0.0
368,0.0
505,0.0
12,693322.3092696413
457,0.0
2,1, 7,21, 0,15,10.00,20.00,SummerDesignDay
7,30.0
9,1626.5885157669134