Program Version,EnergyPlus, Version 8.9.0-eba93e8e1b, YMD=2018.08.02 18:50
1,5,Environment Title[],Latitude[deg],Longitude[deg],Time Zone[],Elevation[m]
2,8,Day of Simulation[],Month[],Day of Month[],DST Indicator[1=yes 0=no],Hour[],StartMinute[],EndMinute[],DayType
3,5,Cumulative Day of Simulation[],Month[],Day of Month[],DST Indicator[1=yes 0=no],DayType  ! When Daily Report Variables Requested
4,2,Cumulative Days of Simulation[],Month[]  ! When Monthly Report Variables Requested
5,1,Cumulative Days of Simulation[] ! When Run Period Report Variables Requested
6,1,Calendar Year of Simulation[] ! When Annual Report Variables Requested
7,1,Environment,Site Outdoor Air Drybulb Temperature [C] !TimeStep
8,9,Environment,Site Outdoor Air Drybulb Temperature [C] !Monthly [Value,Min,Day,Hour,Minute,Max,Day,Hour,Minute]
9,1,Environment,Site Outdoor Air Humidity Ratio [kgWater/kgDryAir] !TimeStep
10,1,Environment,Site Outdoor Air Relative Humidity [%] !TimeStep
11,1,THERMAL ZONE 1,Zone Total Internal Total Heating Rate [W] !TimeStep
122,1,SURFACE 102,Surface Outside Face Incident Solar Radiation Rate per Area [W/m2] !TimeStep
123,1,SURFACE 106,Surface Outside Face Incident Solar Radiation Rate per Area [W/m2] !TimeStep
124,1,SURFACE 110,Surface Outside Face Incident Solar Radiation Rate per Area [W/m2] !TimeStep
125,1,SURFACE 116,Surface Outside Face Incident Solar Radiation Rate per Area [W/m2] !TimeStep
126,1,SUB SURFACE 20,Surface Shading Device Is On Time Fraction [] !TimeStep
127,1,SUB SURFACE 17,Surface Shading Device Is On Time Fraction [] !TimeStep
128,1,SURFACE 101,Surface Inside Face Temperature [C] !TimeStep
129,1,THERMAL ZONE 1,Zone Ventilation Mass Flow Rate [kg/s] !TimeStep
253,1,THERMAL ZONE 1,Zone Air Temperature [C] !TimeStep
254,1,THERMAL ZONE 1,Zone Air Humidity Ratio [] !Hourly
255,7,THERMAL ZONE 1,Zone Air Relative Humidity [%] !Daily [Value,Min,Hour,Minute,Max,Hour,Minute]
367,1,ZONE HVAC BASEBOARD RAD CONV WATER,Baseboard Total Heating Rate [W] !TimeStep
13,1,Electricity:Facility [J] !TimeStep
456,1,Gas:Facility [J] !TimeStep
End of Data Dictionary
1,BERLIN ANN CLG .4% CONDNS DB=>MWB,  52.47,  13.40,   1.00,  49.00
2,1, 7,21, 0, 1, 0.00,10.00,SummerDesignDay
7,22.364
9,0.009189567941359745
10,54.24104359805213
11,1155.5371821160688
122,0.0
123,0.0
124,0.0
125,0.0
126,0.0
127,0.0
128,22.24514563142544
129,0.17995600544868735
253,25.990921712037296
367,0.0
13,693322.3092696413
456,0.0
2,1, 7,21, 0, 1,10.00,20.00,SummerDesignDay
7,22.272
9,0.009189563342807591
10,54.54551374765624
11,1155.5371821160688
122,0.0
123,0.0
124,0.0
125,0.0
126,0.0
127,0.0
128,22.18780015918913
129,0.17992084872213638
253,25.88896611503776
367,0.0
13,693322.3092696413
456,0.0
2,1, 7,21, 0, 1,20.00,30.00,SummerDesignDay
7,22.18
9,0.009189565644531457
10,54.851950383805718
11,1155.5371821160688
122,0.0
123,0.0
124,0.0
125,0.0
126,0.0
127,0.0
128,22.13172831222028
129,0.1799090624637486
253,25.795567529851398
367,0.0
13,693322.3092696413
456,0.0
2,1, 7,21, 0, 1,30.00,40.00,SummerDesignDay
7,22.088
9,0.009189567736916494
10,55.16032559877429
11,1155.5371821160688
122,0.0
123,0.0
124,0.0
125,0.0
126,0.0
127,0.0
128,22.077860543247433
129,0.17995559198127498
253,25.708430906881028
367,0.0
13,693322.3092696413
456,0.0
2,1, 7,21, 0, 1,40.00,50.00,SummerDesignDay
7,21.996000000000003
9,0.00918956314120676
10,55.470614402348989
11,1155.5371821160688
122,0.0
123,0.0
124,0.0
125,0.0
126,0.0
127,0.0
128,22.025687983070094
129,0.18004484613232545
253,25.62384220661827
367,0.0
13,693322.3092696413
456,0.0
2,1, 7,21, 0, 1,50.00,60.00,SummerDesignDay
7,21.904
9,0.009189564829463705
10,55.7829073918536
11,1155.5371821160688
122,0.0
123,0.0
124,0.0
125,0.0
126,0.0
127,0.0
128,21.975018085146329
129,0.1801515311665013
253,25.53993226912819
367,0.0
13,693322.3092696413
456,0.0
2,1, 7,21, 0, 1, 0.00,60.00,SummerDesignDay
254,0.009189565569491618
2,1, 7,21, 0, 2, 0.00,10.00,SummerDesignDay
7,21.842666666666668
9,0.009189568545990233
10,55.99221568661251
11,1155.5371821160688
122,0.0
123,0.0
124,0.0
125,0.0
126,0.0
127,0.0
128,21.925505853555124
129,0.1800349806134416
253,25.462463790018174
367,0.0
13,693322.3092696413
456,0.0
2,1, 7,21, 0, 2,10.00,20.00,SummerDesignDay
7,21.781333333333334
9,0.009189565848556321
10,56.20237315623483
11,1155.5371821160688
122,0.0
123,0.0
124,0.0
125,0.0
126,0.0
127,0.0
128,21.877908871621153
129,0.17996233289384359
253,25.391882986414868
367,0.0
13,693322.3092696413
456,0.0
2,1, 7,21, 0, 2,20.00,30.00,SummerDesignDay
7,21.72
9,0.009189562403244126
10,56.41341452414365
11,1155.5371821160688
122,0.0
123,0.0
124,0.0
125,0.0
126,0.0
127,0.0
128,21.83201776539067
129,0.17993665891723385
253,25.325292961332317
367,0.0
13,693322.3092696413
456,0.0
2,1, 7,21, 0, 2,30.00,40.00,SummerDesignDay
7,21.65866666666667
9,0.0091895657435281
10,56.62538633015243
11,1155.5371821160688
122,0.0
123,0.0
124,0.0
125,0.0
126,0.0
127,0.0
128,21.787806698425184
129,0.17993821236808844
253,25.260270520244775
367,0.0
13,693322.3092696413
456,0.0
2,1, 7,21, 0, 2,40.00,50.00,SummerDesignDay
7,21.59733333333333
9,0.00918956368910446
10,56.83822556039063
11,1155.5371821160688
122,0.0
123,0.0
124,0.0
125,0.0
126,0.0
127,0.0
128,21.74456451816129
129,0.17995047016238806
253,25.195870374016676
367,0.0
13,693322.3092696413
456,0.0
2,1, 7,21, 0, 2,50.00,60.00,SummerDesignDay
7,21.536
9,0.009189566576004954
10,57.05199598325552
11,1155.5371821160688
122,0.0
123,0.0
124,0.0
125,0.0
126,0.0
127,0.0
128,21.702476086149223
129,0.17996698104564425
253,25.132079355658008
367,0.0
13,693322.3092696413
456,0.0
2,1, 7,21, 0, 2, 0.00,60.00,SummerDesignDay
254,0.00918956534623476
2,1, 7,21, 0, 3, 0.00,10.00,SummerDesignDay
7,21.490000000000003
9,0.009189564225811133
10,57.21288753044212
11,1155.5371821160688
122,0.0
123,0.0
124,0.0
125,0.0
126,0.0
127,0.0
128,21.66130382462316
129,0.17987357245089859
253,25.071978274744909
367,0.0
13,693322.3092696413
456,0.0
2,1, 7,21, 0, 3,10.00,20.00,SummerDesignDay
7,21.444000000000004
9,0.00918956205249418
10,57.3742944192479
11,1155.5371821160688
122,0.0
123,0.0
124,0.0
125,0.0
126,0.0
127,0.0
128,21.621543284343099
129,0.17980533956706466
253,25.015663307334198
367,0.0
13,693322.3092696413
456,0.0
2,1, 7,21, 0, 3,20.00,30.00,SummerDesignDay
7,21.398
9,0.009189566255212259
10,57.53625000559849
11,1155.5371821160688
122,0.0
123,0.0
124,0.0
125,0.0
126,0.0
127,0.0
128,21.582947461390565
129,0.17976294947864006
253,24.96151600798351
367,0.0
13,693322.3092696413
456,0.0
2,1, 7,21, 0, 3,30.00,40.00,SummerDesignDay
7,21.352
9,0.009189564219847567
10,57.69868508830782
11,1155.5371821160688
122,0.0
123,0.0
124,0.0
125,0.0
126,0.0
127,0.0
128,21.545568855510135
129,0.17973535928634644
253,24.90829909102721
367,0.0
13,693322.3092696413
456,0.0
2,1, 7,21, 0, 3,40.00,50.00,SummerDesignDay
7,21.306
9,0.00918956813036284
10,57.86167000996583
11,1155.5371821160688
122,0.0
123,0.0
124,0.0
125,0.0
126,0.0
127,0.0
128,21.50893401163302
129,0.1797141169414095
253,24.855542276938427
367,0.0
13,693322.3092696413
456,0.0
2,1, 7,21, 0, 3,50.00,60.00,SummerDesignDay
7,21.26
9,0.009189566282141749
10,58.02514082307013
11,1155.5371821160688
122,0.0
123,0.0
124,0.0
125,0.0
126,0.0
127,0.0
128,21.473190109794964
129,0.17969601439706543
253,24.80329748424943
367,0.0
13,693322.3092696413
456,0.0
2,1, 7,21, 0, 3, 0.00,60.00,SummerDesignDay
254,0.009189564915763246
2,1, 7,21, 0, 4, 0.00,10.00,SummerDesignDay
7,21.214
9,0.009189563884891558
10,58.18912477355725
11,1155.5371821160688
122,0.0
123,0.0
124,0.0
125,0.0
126,0.0
127,0.0
128,21.438038195244169
129,0.17968140655907037
253,24.751627368115565
367,0.0
13,693322.3092696413
456,0.0
2,1, 7,21, 0, 4,10.00,20.00,SummerDesignDay
7,21.168
9,0.009189568317933099
10,58.353676635249147
11,1155.5371821160688
122,0.0
123,0.0
124,0.0
125,0.0
126,0.0
127,0.0
128,21.40366201495948
129,0.17967072134658844
253,24.700560737981165
367,0.0
13,693322.3092696413
456,0.0
2,1, 7,21, 0, 4,20.00,30.00,SummerDesignDay
7,21.122
9,0.00918956612292837
10,58.51870732798909
11,1155.5371821160688
122,0.0
123,0.0
124,0.0
125,0.0
126,0.0
127,0.0
128,21.369816163546046
129,0.1796641614359068
253,24.650024076249136
367,0.0
13,693322.3092696413
456,0.0
2,1, 7,21, 0, 4,30.00,40.00,SummerDesignDay
7,21.076
9,0.009189563842688462
10,58.68426635751138
11,1155.5371821160688
122,0.0
123,0.0
124,0.0
125,0.0
126,0.0
127,0.0
128,21.33664744802604
129,0.1796612240921736
253,24.599981633568978
367,0.0
13,693322.3092696413
456,0.0
2,1, 7,21, 0, 4,40.00,50.00,SummerDesignDay
7,21.03
9,0.009189567928945784
10,58.85038941690851
11,1155.5371821160688
122,0.0
123,0.0
124,0.0
125,0.0
126,0.0
127,0.0
128,21.30393649728344
129,0.1796616646408043
253,24.550373399920617
367,0.0
13,693322.3092696413
456,0.0
2,1, 7,21, 0, 4,50.00,60.00,SummerDesignDay
7,20.984
9,0.009189565877729607
10,59.017006455506109
11,1155.5371821160688
122,0.0
123,0.0
124,0.0
125,0.0
126,0.0
127,0.0
128,21.27181592130698
129,0.1796650776739427
253,24.50119195636596
367,0.0
13,693322.3092696413
456,0.0
2,1, 7,21, 0, 4, 0.00,60.00,SummerDesignDay
254,0.009189565969161004
2,1, 7,21, 0, 5, 0.00,10.00,SummerDesignDay
7,20.953333333333334
9,0.009189564456470977
10,59.128376727748037
11,1155.5371821160688
122,0.0
123,0.0
124,0.0
125,0.0
126,0.0
127,0.0
128,21.240235981155359
129,0.17955713200273785
253,24.45536527818061
367,0.0
13,693322.3092696413
456,0.0
2,1, 7,21, 0, 5,10.00,20.00,SummerDesignDay
7,20.922666666666666
9,0.009189562922905123
10,59.23998284009501
11,1155.5371821160688
122,5.557434379427351
123,5.557432237797178
124,11.588144755376347
125,14.369087386274585
126,0.0
127,0.0
128,21.22915635837841
129,0.17947211994050558
253,24.415941766100607
367,0.0
13,693322.3092696413
456,0.0
2,1, 7,21, 0, 5,20.00,30.00,SummerDesignDay
7,20.892000000000004
9,0.009189567811576403
10,59.351870414994269
11,1155.5371821160688
122,9.162112593884136
123,9.162109097342256
124,27.18198196250713
125,37.53174375121483
126,0.0
127,1.0
128,21.213623617537026
129,0.17943090867110959
253,24.385127354521904
367,0.0
13,693322.3092696413
456,0.0
2,1, 7,21, 0, 5,30.00,40.00,SummerDesignDay
7,20.861333333333336
9,0.009189566182789344
10,59.46395077202901
11,1155.5371821160688
122,13.866563434318424
123,13.866558158203177
124,55.31808779726204
125,84.30753428848016
126,0.0
127,1.0
128,21.215213719429888
129,0.17944861356450046
253,24.3615342145705
367,0.0
13,693322.3092696413
456,0.0
2,1, 7,21, 0, 5,40.00,50.00,SummerDesignDay
7,20.830666666666667
9,0.009189564690181703
10,59.57627021620968
11,1155.5371821160688
122,19.280417156623657
123,19.280409864764047
124,90.17334334383628
125,149.61917738802954
126,0.0
127,1.0
128,21.226883653721317
129,0.17951575151633326
253,24.34444858630089
367,0.0
13,693322.3092696413
456,0.0
2,1, 7,21, 0, 5,50.00,60.00,SummerDesignDay
7,20.8
9,0.009189563347069729
10,59.68883290106704
11,1155.5371821160688
122,24.19535918360034
123,24.195350214033654
124,111.68422139599216
125,198.72964907339009
126,0.0
127,1.0
128,21.236209140944657
129,0.17962745181810364
253,24.33141555785145
367,0.0
13,693322.3092696413
456,0.0
2,1, 7,21, 0, 5, 0.00,60.00,SummerDesignDay
254,0.009189565435309634
2,1, 7,21, 0, 6, 0.00,10.00,SummerDesignDay
7,20.830666666666667
9,0.009189564690181703
10,59.57627021620968
11,1155.5371821160688
122,29.191650814422635
123,29.191640221768357
124,127.90834083077452
125,243.6603511773678
126,1.0
127,1.0
128,21.23955760068727
129,0.17930959014918569
253,24.335354882469166
367,0.0
13,693322.3092696413
456,0.0
2,1, 7,21, 0, 6,10.00,20.00,SummerDesignDay
7,20.861333333333336
9,0.009189566182789344
10,59.46395077202901
11,1155.5371821160688
122,34.22059522491912
123,34.22058307749289
124,141.47950191163998
125,289.1508400287189
126,1.0
127,1.0
128,21.25112419244106
129,0.17910795791506679
253,24.35194844443971
367,0.0
13,693322.3092696413
456,0.0
2,1, 7,21, 0, 6,20.00,30.00,SummerDesignDay
7,20.892000000000004
9,0.009189567811576403
10,59.351870414994269
11,1155.5371821160688
122,40.95109614728264
123,40.95108170795615
124,161.3508873290091
125,355.7757650006191
126,1.0
127,1.0
128,21.27284947608545
129,0.17899296753609973
253,24.37494550512526
367,0.0
13,693322.3092696413
456,0.0
2,1, 7,21, 0, 6,30.00,40.00,SummerDesignDay
7,20.922666666666666
9,0.009189562922905123
10,59.23998284009501
11,1155.5371821160688
122,46.05919789219229
123,46.05918199806393
124,168.252071089466
125,400.04055717385048
126,1.0
127,1.0
128,21.28876791684391
129,0.17892182104579838
253,24.39914321264128
367,0.0
13,693322.3092696413
456,0.0
2,1, 7,21, 0, 6,40.00,50.00,SummerDesignDay
7,20.953333333333334
9,0.009189564456470977
10,59.128376727748037
11,1155.5371821160688
122,51.09967132973943
123,51.099654067927648
124,171.8239985278331
125,441.9719849261006
126,1.0
127,1.0
128,21.304201991568186
129,0.17885890253847945
253,24.422446477439864
367,0.0
13,693322.3092696413
456,0.0
2,1, 7,21, 0, 6,50.00,60.00,SummerDesignDay
7,20.984
9,0.009189565877729607
10,59.017006455506109
11,1155.5371821160688
122,56.05891176923052
123,56.0588932250775
124,172.24475527889318
125,481.22516234980898
126,1.0
127,1.0
128,21.318954007341273
129,0.17878987793939855
253,24.4449509614624
367,0.0
13,693322.3092696413
456,0.0
2,1, 7,21, 0, 6, 0.00,60.00,SummerDesignDay
254,0.009189565148406765
2,1, 7,21, 0, 7, 0.00,10.00,SummerDesignDay
7,21.091333333333336
9,0.00918956474178621
10,58.629023535520847
11,1626.5885157669134
122,60.85128245439181
123,60.85126274654854
124,169.5818900791732
125,517.1433873244697
126,1.0
127,1.0
128,21.38529971817846
129,0.1788981296309773
253,24.812150009510387
367,0.0
13,693322.3092696413
456,0.0
2,1, 7,21, 0, 7,10.00,20.00,SummerDesignDay
7,21.198666666666669
9,0.009189563626437992
10,58.24390532200533
11,1626.5885157669134
122,65.62794348678918
123,65.62792265504241
124,164.45895861523327
125,550.6089132040942
126,1.0
127,1.0
128,21.479437143468084
129,0.1816259137087421
253,25.247134347805078
367,0.0
13,693322.3092696413
456,0.0
2,1, 7,21, 0, 7,20.00,30.00,SummerDesignDay
7,21.306
9,0.00918956813036284
10,57.86167000996583
11,1626.5885157669134
122,70.29545958994805
123,70.29543771235805
124,156.9195213135962
125,581.0043750294649
126,1.0
127,1.0
128,21.560218944408797
129,0.18246731854425417
253,25.468229592433084
367,0.0
13,693322.3092696413
456,0.0
2,1, 7,21, 0, 7,30.00,40.00,SummerDesignDay
7,21.413333333333335
9,0.009189567307299179
10,57.482222828504628
11,1626.5885157669134
122,74.84823960792567
123,74.8482167594552
124,147.2181750658792
125,608.3159969811867
126,1.0
127,1.0
128,21.61878934347766
129,0.1827405188648439
253,25.544189516301814
367,0.0
13,693322.3092696413
456,0.0
2,1, 7,21, 0, 7,40.00,50.00,SummerDesignDay
7,21.520666666666668
9,0.009189565514594366
10,57.10556813999771
11,1626.5885157669134
122,79.28144873114472
123,79.281424983715
124,135.5977989880841
125,632.552543374925
126,1.0
127,1.0
128,21.662992989935895
129,0.18245970844826796
253,25.59222638601206
367,0.0
13,693322.3092696413
456,0.0
2,1, 7,21, 0, 7,50.00,60.00,SummerDesignDay
7,21.628
9,0.009189564091541194
10,56.731691441412447
11,1626.5885157669134
122,83.5908392221528
123,83.59081464471848
124,122.28795525230453
125,653.7380034241911
126,1.0
127,1.0
128,21.69856552663074
129,0.18198848688467254
253,25.65961204240847
367,0.0
13,693322.3092696413
456,0.0
2,1, 7,21, 0, 7, 0.00,60.00,SummerDesignDay
254,0.009189565453299046
2,1, 7,21, 0, 8, 0.00,10.00,SummerDesignDay
7,21.888666666666667
9,0.009189564136306393
10,55.83514205005695
11,1626.5885157669134
122,87.77263227928697
123,87.77260693791743
124,107.50461220231229
125,671.9069540212462
126,1.0
127,1.0
128,21.735462307360807
129,0.1805094394341133
253,25.765447045567897
367,0.0
13,693322.3092696413
456,0.0
2,1, 7,21, 0, 8,10.00,20.00,SummerDesignDay
7,22.14933333333333
9,0.009189564585358079
10,54.95451450421092
11,1626.5885157669134
122,96.42255317920886
123,96.04509638853236
124,96.04512444239522
125,698.5486987824215
126,1.0
127,1.0
128,21.783582764083968
129,0.1792950125055241
253,25.895024442798716
367,0.0
13,693322.3092696413
456,0.0
2,1, 7,21, 0, 8,20.00,30.00,SummerDesignDay
7,22.41
9,0.009189563878841444
10,54.089488087926287
11,1626.5885157669134
122,121.510634741995
123,99.79858368533172
124,99.7986123015286
125,711.5418868594224
126,1.0
127,1.0
128,21.83101449204476
129,0.1782443756437111
253,26.028884439731848
367,0.0
13,693322.3092696413
456,0.0
2,1, 7,21, 0, 8,30.00,40.00,SummerDesignDay
7,22.67066666666667
9,0.009189563890067985
10,53.23977197139405
11,1626.5885157669134
122,147.26214611610846
123,103.39211019906583
124,103.39213930869781
125,721.5144459426691
126,1.0
127,1.0
128,21.87955777840605
129,0.17722472210601299
253,26.159105531409354
367,0.0
13,693322.3092696413
456,0.0
2,1, 7,21, 0, 8,40.00,50.00,SummerDesignDay
7,22.931333333333336
9,0.009189563177435124
10,52.405053196379707
11,1626.5885157669134
122,173.49643636763393
123,106.82514479546154
124,106.825174333172
125,728.5314025748788
126,1.0
127,1.0
128,21.927502529197896
129,0.17618213269090925
253,26.28623481098946
367,0.0
13,693322.3092696413
456,0.0
2,1, 7,21, 0, 8,50.00,60.00,SummerDesignDay
7,23.192
9,0.009189562824928473
10,51.58504897425392
11,1626.5885157669134
122,200.04409970794655
123,110.09738313210092
124,110.09741303601257
125,732.6607608872265
126,1.0
127,1.0
128,21.975085657157139
129,0.17512038261661043
253,26.41254055577229
367,0.0
13,693322.3092696413
456,0.0
2,1, 7,21, 0, 8, 0.00,60.00,SummerDesignDay
254,0.009189564516066715
2,1, 7,21, 0, 9, 0.00,10.00,SummerDesignDay
7,23.483333333333336
9,0.009189564408585234
10,50.68564466815006
11,1626.5885157669134
122,226.74605154854465
123,113.20875325411014
124,113.2087834657769
125,733.9733088088533
126,1.0
127,1.0
128,22.022517447036465
129,0.17382888129465044
253,26.54341779346116
367,0.0
13,693322.3092696413
456,0.0
2,1, 7,21, 0, 9,10.00,20.00,SummerDesignDay
7,23.77466666666667
9,0.009189564375005162
10,49.80386194395898
11,1626.5885157669134
122,253.4527127825689
123,116.15942693187809
124,116.15945739625187
125,732.5425360226701
126,1.0
127,1.0
128,22.070693646196085
129,0.172570896292324
253,26.67828344501243
367,0.0
13,693322.3092696413
456,0.0
2,1, 7,21, 0, 9,20.00,30.00,SummerDesignDay
7,24.066000000000004
9,0.009189566536644148
10,48.93933740744746
11,1626.5885157669134
122,280.02329857370008
123,118.94983548206378
124,118.94986614747589
125,728.4446209015562
126,1.0
127,1.0
128,22.11955505096083
129,0.17134238029266128
253,26.814216945075257
367,0.0
13,693322.3092696413
456,0.0
2,1, 7,21, 0, 9,30.00,40.00,SummerDesignDay
7,24.357333333333334
9,0.009189567271552185
10,48.09168534216754
11,1626.5885157669134
122,306.325203942871
123,121.58068911004686
124,121.5807199282042
125,721.7584587069279
126,1.0
127,1.0
128,22.168983108799446
129,0.17012349350014806
253,26.949587088651666
367,0.0
13,693322.3092696413
456,0.0
2,1, 7,21, 0, 9,40.00,50.00,SummerDesignDay
7,24.648666666666668
9,0.009189568535108946
10,47.26054982837184
11,1626.5885157669134
122,332.23347679249158
123,124.05299897934252
124,124.05302990533783
125,712.5657132489943
126,1.0
127,1.0
128,22.218417619696426
129,0.16890318472305577
253,27.08412242867324
367,0.0
13,693322.3092696413
456,0.0
2,1, 7,21, 0, 9,50.00,60.00,SummerDesignDay
7,24.94
9,0.009189562897424909
10,46.44553887425037
11,1626.5885157669134
122,357.63036867702268
123,126.36810127544404
124,126.36813226778067
125,700.9508807524135
126,1.0
127,1.0
128,22.267920894652606
129,0.167679627674085
253,27.2181267333761
367,0.0
13,693322.3092696413
456,0.0
2,1, 7,21, 0, 9, 0.00,60.00,SummerDesignDay
254,0.009189564860384777
2,1, 7,21, 0,10, 0.00,10.00,SummerDesignDay
7,25.200666666666668
9,0.009189563082741394
10,45.729757802642328
11,1626.5885157669134
122,382.4049540152609
123,128.52768249947284
124,128.5277135201032
125,687.001358964778
126,1.0
127,1.0
128,22.316935522958027
129,0.16667882455206527
253,27.347486564969583
367,0.0
13,693322.3092696413
456,0.0
2,1, 7,21, 0,10,10.00,20.00,SummerDesignDay
7,25.461333333333334
9,0.009189562317989014
10,45.02638813458461
11,1626.5885157669134
122,406.4528091903154
123,130.533805103563
124,130.5338361179402
125,670.8075173031532
126,1.0
127,1.0
128,22.36482040926407
129,0.16564847067455533
253,27.472469362236546
367,0.0
13,693322.3092696413
456,0.0
2,1, 7,21, 0,10,20.00,30.00,SummerDesignDay
7,25.722
9,0.009189562437248318
10,44.335203639442948
11,1626.5885157669134
122,429.6757438936503
123,132.3889323621639
124,132.38896333930567
125,652.4627655054162
126,1.0
127,1.0
128,22.411232732906094
129,0.1645904435306752
253,27.594876666077736
367,0.0
13,693322.3092696413
456,0.0
2,1, 7,21, 0,10,30.00,40.00,SummerDesignDay
7,25.982666666666668
9,0.009189568008970407
10,43.65598773506713
11,1626.5885157669134
122,451.981578023961
123,134.0959510561228
124,134.0959819686862
125,632.0636191125506
126,1.0
127,1.0
128,22.456581989804897
129,0.16351693339375457
253,27.71589893146938
367,0.0
13,693322.3092696413
456,0.0
2,1, 7,21, 0,10,40.00,50.00,SummerDesignDay
7,26.243333333333334
9,0.009189567663398029
10,42.98846151465822
11,1626.5885157669134
122,473.2839583861315
123,135.65819012603633
124,135.6582209504009
125,609.7097603123607
126,1.0
127,1.0
128,22.500534506758024
129,0.1624359849677261
253,27.835553049228169
367,0.0
13,693322.3092696413
456,0.0
2,1, 7,21, 0,10,50.00,60.00,SummerDesignDay
7,26.504
9,0.00918956755275617
10,42.332431034534398
11,1626.5885157669134
122,493.50221031523327
123,137.07943293216705
124,137.07946364852308
125,585.5040923044662
126,1.0
127,1.0
128,22.544500256012875
129,0.16134772949340024
253,27.953918650862023
367,0.0
13,693322.3092696413
456,0.0
2,1, 7,21, 0,10, 0.00,60.00,SummerDesignDay
254,0.009189564754799892
2,1, 7,21, 0,11, 0.00,10.00,SummerDesignDay
7,26.734
9,0.009189566251135697
10,41.76294800157632
11,1626.5885157669134
122,512.5612201549907
123,138.36392016049448
124,138.36395075293184
125,559.552784436805
126,1.0
127,1.0
128,22.588845109276567
129,0.16047488880639802
253,28.067414368451229
367,0.0
13,693322.3092696413
456,0.0
2,1, 7,21, 0,11,10.00,20.00,SummerDesignDay
7,26.964
9,0.009189563475560648
10,41.20208799262611
11,1626.5885157669134
122,530.3913452335989
123,139.5163397856433
124,139.5163702422343
125,531.9653039383279
126,1.0
127,1.0
128,22.635414816037789
129,0.15957073337814607
253,28.177453794275207
367,0.0
13,693322.3092696413
456,0.0
2,1, 7,21, 0,11,20.00,30.00,SummerDesignDay
7,27.194
9,0.009189562064812229
10,40.649723799747778
11,1626.5885157669134
122,546.9283485845729
123,140.54179992926306
124,140.54183024213135
125,502.8544281778817
126,1.0
127,1.0
128,22.68557893438812
129,0.15864480542545129
253,28.287942626796594
367,0.0
13,693322.3092696413
456,0.0
2,1, 7,21, 0,11,30.00,40.00,SummerDesignDay
7,27.424
9,0.009189566897867926
10,40.10572972159033
11,1626.5885157669134
122,562.1133561324892
123,141.44578007754618
124,141.44581024291134
125,472.33622913032596
126,1.0
127,1.0
128,22.73655331225655
129,0.15772330166635263
253,28.400553046756973
367,0.0
13,693322.3092696413
456,0.0
2,1, 7,21, 0,11,40.00,50.00,SummerDesignDay
7,27.654
9,0.009189565024618792
10,39.56991496515382
11,1626.5885157669134
122,575.8928343715278
123,142.23405614391045
124,142.23408616209543
125,440.5300193612528
126,1.0
127,1.0
128,22.788304358208536
129,0.15681740158329919
253,28.51474797556174
367,0.0
13,693322.3092696413
456,0.0
2,1, 7,21, 0,11,50.00,60.00,SummerDesignDay
7,27.884
9,0.009189563225902874
10,39.04216788536709
11,1626.5885157669134
122,588.2185866717748
123,142.9125955324996
124,142.9126254078873
125,407.5582467510065
126,1.0
127,1.0
128,22.84111774502177
129,0.15592347756028264
253,28.62986073237977
367,0.0
13,693322.3092696413
456,0.0
2,1, 7,21, 0,11, 0.00,60.00,SummerDesignDay
254,0.009189565312108002
2,1, 7,21, 0,12, 0.00,10.00,SummerDesignDay
7,28.037333333333334
9,0.009189564067192957
10,38.69476381938499
11,1626.5885157669134
122,599.047766220193
123,143.4874199387082
124,143.4874496796314
125,373.5463239562585
126,1.0
127,1.0
128,22.893988103696097
129,0.15558873761661055
253,28.736192015353489
367,0.0
13,693322.3092696413
456,0.0
2,1, 7,21, 0,12,10.00,20.00,SummerDesignDay
7,28.190666666666666
9,0.009189565022265147
10,38.350845483743849
11,1626.5885157669134
122,608.3429032230889
123,143.9644363167783
124,143.96446593532807
125,338.6223789987434
126,1.0
127,1.0
128,22.94600151354133
129,0.15519569748924959
253,28.83448995949091
367,0.0
13,693322.3092696413
456,0.0
2,1, 7,21, 0,12,20.00,30.00,SummerDesignDay
7,28.344
9,0.009189565815065412
10,38.01037521020202
11,1626.5885157669134
122,616.0719433856463
123,144.34924027997946
124,144.34926979171906
125,302.9169161515595
126,1.0
127,1.0
128,22.996611989539884
129,0.15474943954369003
253,28.929630235584435
367,0.0
13,693322.3092696413
456,0.0
2,1, 7,21, 0,12,30.00,40.00,SummerDesignDay
7,28.497333333333335
9,0.00918956732840178
10,37.673320434832657
11,1626.5885157669134
122,614.6596162554462
123,148.43893799912403
124,148.43896922977454
125,267.45928865986977
126,1.0
127,1.0
128,23.051528046714937
129,0.15428257031255802
253,29.026021622158074
367,0.0
13,693322.3092696413
456,0.0
2,1, 7,21, 0,12,40.00,50.00,SummerDesignDay
7,28.650666666666667
9,0.009189568069318906
10,37.33963313789533
11,1626.5885157669134
122,619.0558554462067
123,148.61683031503785
124,148.61686146115043
125,231.43551791240788
126,1.0
127,1.0
128,23.101897878411799
129,0.15382451758902575
253,29.123123012434467
367,0.0
13,693322.3092696413
456,0.0
2,1, 7,21, 0,12,50.00,60.00,SummerDesignDay
7,28.804
9,0.00918956276692053
10,37.00925727502415
11,1626.5885157669134
122,621.8678447132346
123,148.72826358580245
124,148.72829467679564
125,195.04887949478275
126,1.0
127,1.0
128,23.152403446615336
129,0.1533716631647711
253,29.219621840293138
367,0.0
13,693322.3092696413
456,0.0
2,1, 7,21, 0,12, 0.00,60.00,SummerDesignDay
254,0.009189565139887796
2,1, 7,21, 0,13, 0.00,10.00,SummerDesignDay
7,28.926666666666667
9,0.00918956840543456
10,36.74737375418033
11,1626.5885157669134
122,623.0865515545028
123,148.77598189996335
124,148.77601296681108
125,158.43269938751855
126,1.0
127,1.0
128,23.20246114413761
129,0.1531350627728414
253,29.311611486240133
367,0.0
13,693322.3092696413
456,0.0
2,1, 7,21, 0,13,10.00,20.00,SummerDesignDay
7,29.049333333333335
9,0.009189568174162394
10,36.48755935939097
11,1626.5885157669134
122,622.7080695720517
123,175.80297538604445
124,148.76123176844309
125,148.76123176844306
126,1.0
127,1.0
128,23.259261241004788
129,0.1528686300870285
253,29.402306810828884
367,0.0
13,693322.3092696413
456,0.0
2,1, 7,21, 0,13,20.00,30.00,SummerDesignDay
7,29.172
9,0.009189567652064192
10,36.229815769929377
11,1626.5885157669134
122,620.7336114054348
123,212.32695509104304
124,148.68357190888498
125,148.68357190888492
126,1.0
127,1.0
128,23.327667186267843
129,0.15259379853604586
253,29.497784128553208
367,0.0
13,693322.3092696413
456,0.0
2,1, 7,21, 0,13,30.00,40.00,SummerDesignDay
7,29.294666666666669
9,0.009189566903185839
10,35.974128952167678
11,1626.5885157669134
122,617.1695109463733
123,248.55828792659669
124,148.5410803089105
125,148.54108030891048
126,1.0
127,1.0
128,23.403918680607977
129,0.15235100654489718
253,29.601321093727419
367,0.0
13,693322.3092696413
456,0.0
2,1, 7,21, 0,13,40.00,50.00,SummerDesignDay
7,29.417333333333333
9,0.009189566484578678
10,35.72048091061017
11,1626.5885157669134
122,612.0272346009575
123,284.3634619077075
124,148.33033479825267
125,148.33033479825265
126,1.0
127,1.0
128,23.48418492285087
129,0.15216201375236519
253,29.711560196121014
367,0.0
13,693322.3092696413
456,0.0
2,1, 7,21, 0,13,50.00,60.00,SummerDesignDay
7,29.54
9,0.009189565521883143
10,35.468848382890268
11,1626.5885157669134
122,612.6067088307269
123,319.92446549853437
124,144.17810176305486
125,144.17810176305484
126,1.0
127,1.0
128,23.564316449885376
129,0.1520177302077913
253,29.825559070089608
367,0.0
13,693322.3092696413
456,0.0
2,1, 7,21, 0,13, 0.00,60.00,SummerDesignDay
254,0.009189566653442354
2,1, 7,21, 0,14, 0.00,10.00,SummerDesignDay
7,29.616666666666668
9,0.009189563260059198
10,35.31259185282269
11,1626.5885157669134
122,604.1319495384633
123,355.27600795424487
124,143.75027541465458
125,143.75027541465455
126,1.0
127,1.0
128,23.647559736871469
129,0.15222735873801844
253,29.936375231813558
367,0.0
13,693322.3092696413
456,0.0
2,1, 7,21, 0,14,10.00,20.00,SummerDesignDay
7,29.69333333333333
9,0.00918956620610552
10,35.15713070075465
11,1626.5885157669134
122,594.1056039178658
123,389.7839250552313
124,143.2276375330993
125,143.22763753309926
126,1.0
127,1.0
128,23.730299182606623
129,0.1524157318555001
253,30.043986373841176
367,0.0
13,693322.3092696413
456,0.0
2,1, 7,21, 0,14,20.00,30.00,SummerDesignDay
7,29.77
9,0.00918956420738412
10,35.00242422471749
11,1626.5885157669134
122,582.56229767834
123,423.3187902814232
124,142.60441902711677
125,142.6044190271167
126,1.0
127,1.0
128,23.811850806673204
129,0.15258271996042625
253,30.150975294816229
367,0.0
13,693322.3092696413
456,0.0
2,1, 7,21, 0,14,30.00,40.00,SummerDesignDay
7,29.846666666666669
9,0.009189567522842765
10,34.848506750392107
11,1626.5885157669134
122,569.5420526081328
123,455.75372572281557
124,141.87463560080225
125,141.8746356008022
126,1.0
127,1.0
128,23.89317811327761
129,0.15274548992368187
253,30.25878568792337
367,0.0
13,693322.3092696413
456,0.0
2,1, 7,21, 0,14,40.00,50.00,SummerDesignDay
7,29.923333333333333
9,0.009189564899175856
10,34.69533191531059
11,1626.5885157669134
122,555.0902530196523
123,486.964697631425
124,141.0322721071681
125,141.03227210716808
126,1.0
127,1.0
128,23.97440924988653
129,0.15291363322765393
253,30.367318724461968
367,0.0
13,693322.3092696413
456,0.0
2,1, 7,21, 0,14,50.00,60.00,SummerDesignDay
7,30.0
9,0.009189568617906274
10,34.54294129841274
11,1626.5885157669134
122,539.2576249744188
123,516.8307268766084
124,140.0714367692719
125,140.07143676927189
126,1.0
127,1.0
128,24.0557753962267
129,0.15308648680452234
253,30.476091865570944
367,0.0
13,693322.3092696413
456,0.0
2,1, 7,21, 0,14, 0.00,60.00,SummerDesignDay
254,0.009189565764854137